----- GAMESS execution script 'rungms' -----
This job is running on host chemcompute-node-0.novalocal
under operating system Linux at Mon Nov 15 03:52:26 UTC 2021
SLURM has assigned the following compute nodes to this run:
chemcompute-node-0
Available scratch disk space (Kbyte units) at beginning of the job is
Filesystem     1K-blocks     Used Available Use% Mounted on
/dev/sda1       62903276 16913704  45989572  27% /
GAMESS temporary binary files will be written to /scratch/306647
GAMESS supplementary output files will be written to /data/slurm/342661
Copying input file 342661.inp to your run's scratch directory...
The generated host list is
chemcompute-node-0.novalocal

 Distributed Data Interface kickoff program.
 Initiating 1 compute processes on 1 nodes to run the following command:
 /data/gamess-2019R1-ddi/gamess.00.x 342661 

          ******************************************************
          *         GAMESS VERSION = 30 JUN 2019 (R1)          *
          *             FROM IOWA STATE UNIVERSITY             *
          * M.W.SCHMIDT, K.K.BALDRIDGE, J.A.BOATZ, S.T.ELBERT, *
          *   M.S.GORDON, J.H.JENSEN, S.KOSEKI, N.MATSUNAGA,   *
          *          K.A.NGUYEN, S.J.SU, T.L.WINDUS,           *
          *       TOGETHER WITH M.DUPUIS, J.A.MONTGOMERY       *
          *         J.COMPUT.CHEM.  14, 1347-1363(1993)        *
          **************** 64 BIT LINUX VERSION ****************

  SINCE 1993, STUDENTS AND POSTDOCS WORKING AT IOWA STATE UNIVERSITY
  AND ALSO IN THEIR VARIOUS JOBS AFTER LEAVING ISU HAVE MADE IMPORTANT
  CONTRIBUTIONS TO THE CODE:
     IVANA ADAMOVIC, CHRISTINE AIKENS, YURI ALEXEEV, POOJA ARORA,
     ANDREY ASADCHEV, ROB BELL, PRADIPTA BANDYOPADHYAY, JONATHAN BENTZ,
     COLLEEN BERTONI, BRETT BODE, KURT BRORSEN, CALEB CARLIN, GALINA CHABAN,
     WEI CHEN, CHEOL HO CHOI, PAUL DAY, ALBERT DEFUSCO, NUWAN DESILVA,
     TIM DUDLEY, DMITRI FEDOROV, ALEX FINDLATER, GRAHAM FLETCHER, 
     MARK FREITAG, KURT GLAESEMANN, ANASTASIA GUNINA,
     DAN KEMP, GRANT MERRILL, NORIYUKI MINEZAWA, JONATHAN MULLIN,
     TAKESHI NAGATA, SEAN NEDD, HEATHER NETZLOFF, BOSILJKA NJEGIC, RYAN OLSON,
     MIKE PAK, BUU PHAM,
     SPENCER PRUITT, LUKE ROSKOP, JIM SHOEMAKER, LYUDMILA SLIPCHENKO,
     TONY SMITH, SAROM SOK LEANG, JIE SONG, TETSUYA TAKETSUGU, SIMON WEBB,
     PENG XU, SOOHAENG YOO, FEDERICO ZAHARIEV

  ADDITIONAL CODE HAS BEEN PROVIDED BY COLLABORATORS IN OTHER GROUPS:
     IOWA STATE UNIVERSITY:
          JOE IVANIC, AARON WEST, LAIMUTIS BYTAUTAS, KLAUS RUEDENBERG
     UNIVERSITY OF TOKYO: KIMIHIKO HIRAO, TAKAHITO NAKAJIMA,
          TAKAO TSUNEDA, MUNEAKI KAMIYA, SUSUMU YANAGISAWA,
          KIYOSHI YAGI, MAHITO CHIBA, SEIKEN TOKURA, NAOAKI KAWAKAMI
     UNIVERSITY OF AARHUS: FRANK JENSEN
     UNIVERSITY OF IOWA: VISVALDAS KAIRYS, HUI LI
     NATIONAL INST. OF STANDARDS AND TECHNOLOGY: WALT STEVENS, DAVID GARMER
     UNIVERSITY OF PISA: BENEDETTA MENNUCCI, JACOPO TOMASI
     UNIVERSITY OF MEMPHIS: HENRY KURTZ, PRAKASHAN KORAMBATH
     UNIVERSITY OF ALBERTA: TOBY ZENG, MARIUSZ KLOBUKOWSKI
     UNIVERSITY OF NEW ENGLAND: MARK SPACKMAN
     MIE UNIVERSITY: HIROAKI UMEDA
     NAT. INST. OF ADVANCED INDUSTRIAL SCIENCE AND TECHNOLOGY: KAZUO KITAURA
     MICHIGAN STATE UNIVERSITY:
          KAROL KOWALSKI, MARTA WLOCH, JEFFREY GOUR, JESSE LUTZ,
          WEI LI, JUN SHEN, J. EMILIANO DEUSTUA, PIOTR PIECUCH
     UNIVERSITY OF MINNESOTA:
          YINAN SHU
     UNIVERSITY OF SILESIA: MONIKA MUSIAL, STANISLAW KUCHARSKI
     FACULTES UNIVERSITAIRES NOTRE-DAME DE LA PAIX:
          OLIVIER QUINET, BENOIT CHAMPAGNE
     UNIVERSITY OF CALIFORNIA - SANTA BARBARA: BERNARD KIRTMAN
     INSTITUTE FOR MOLECULAR SCIENCE:
          KAZUYA ISHIMURA, MICHIO KATOUDA, AND SHIGERU NAGASE
     UNIVERSITY OF NOTRE DAME: ANNA POMOGAEVA, DAN CHIPMAN
     KYUSHU UNIVERSITY:
          HARUYUKI NAKANO,
          FENG LONG GU, JACEK KORCHOWIEC, MARCIN MAKOWSKI, AND YURIKO AOKI,
          HIROTOSHI MORI AND EISAKU MIYOSHI
     PENNSYLVANIA STATE UNIVERSITY:
          TZVETELIN IORDANOV, CHET SWALINA, JONATHAN SKONE,
          SHARON HAMMES-SCHIFFER
     WASEDA UNIVERSITY:
          MASATO KOBAYASHI, TOMOKO AKAMA, TSUGUKI TOUMA,
          TAKESHI YOSHIKAWA, YASUHIRO IKABATA, JUNJI SEINO,
          YUYA NAKAJIMA, HIROMI NAKAI
     NANJING UNIVERSITY: SHUHUA LI
     UNIVERSITY OF NEBRASKA:
          PEIFENG SU, DEJUN SI, NANDUN THELLAMUREGE, YALI WANG, HUI LI
     UNIVERSITY OF ZURICH: ROBERTO PEVERATI, KIM BALDRIDGE
     N. COPERNICUS UNIVERSITY AND JACKSON STATE UNIVERSITY:
          MARIA BARYSZ
     UNIVERSITY OF COPENHAGEN: Jimmy Kromann, CASPER STEINMANN
     TOKYO INSTITUTE OF TECHNOLOGY: HIROYA NAKATA
     NAGOYA UNIVERSITY: YOSHIO NISHIMOTO, STEPHAN IRLE
     MOSCOW STATE UNIVERSITY: VLADIMIR MIRONOV
     A.N.NESMEYANOV INSTITUTE OF ORGANOELEMENT COMPOUNDS OF RUSSIAN ACADEMY OF SCIENCES:
          IGOR S. GERASIMOV

 EXECUTION OF GAMESS BEGUN Mon Nov 15 03:52:27 2021

            ECHO OF THE FIRST FEW INPUT CARDS -
 INPUT CARD>!   File created by the GAMESS Input Deck Generator Plugin for Avogadro         
 INPUT CARD> $BASIS GBASIS=STO NGAUSS=3 $END                                                
 INPUT CARD> $CONTRL SCFTYP=UHF RUNTYP=OPTIMIZE ICHARG=1 MULT=1 $END                        
 INPUT CARD> $STATPT OPTTOL=0.0001 NSTEP=20 $END                                            
 INPUT CARD>                                                                                
 INPUT CARD> $DATA                                                                          
 INPUT CARD>Title                                                                           
 INPUT CARD>C1                                                                              
 INPUT CARD>C     6.0    -1.75237    -0.00029    -0.05230                                   
 INPUT CARD>C     6.0    -0.80727    -1.15938    -0.25088                                   
 INPUT CARD>C     6.0     0.41617    -0.74698     0.57024                                   
 INPUT CARD>Br    35.0     1.94920    -0.00688    -0.44526                                  
 INPUT CARD>C     6.0     0.41938     0.72957     0.57772                                   
 INPUT CARD>C     6.0    -0.80134     1.15562    -0.24042                                   
 INPUT CARD>H     1.0    -2.12053    -0.00401     0.99977                                   
 INPUT CARD>H     1.0    -2.62132     0.00505    -0.74392                                   
 INPUT CARD>H     1.0    -0.52394    -1.22029    -1.32657                                   
 INPUT CARD>H     1.0    -1.23729    -2.13537     0.05772                                   
 INPUT CARD>H     1.0     0.48097    -1.09583     1.62540                                   
 INPUT CARD>H     1.0     0.48301     1.06630     1.63690                                   
 INPUT CARD>H     1.0    -0.51730     1.22442    -1.31547                                   
 INPUT CARD>H     1.0    -1.22634     2.13114     0.07646                                   
 INPUT CARD> $END                                                                           
    1000000 WORDS OF MEMORY AVAILABLE

     BASIS OPTIONS
     -------------
     GBASIS=STO          IGAUSS=       3      POLAR=NONE    
     NDFUNC=       0     NFFUNC=       0     DIFFSP=       F
     NPFUNC=       0      DIFFS=       F     BASNAM=        


     RUN TITLE
     ---------
 Title                                                                           

 THE POINT GROUP OF THE MOLECULE IS C1      
 THE ORDER OF THE PRINCIPAL AXIS IS     0

 ATOM      ATOMIC                      COORDINATES (BOHR)
           CHARGE         X                   Y                   Z
 C           6.0    -3.3114991291       -0.0005480205       -0.0988326692
 C           6.0    -1.5255190981       -2.1909105156       -0.4740944558
 C           6.0     0.7864472643       -1.4115875183        1.0775973472
 BR         35.0     3.6834538953       -0.0130013148       -0.8414193933
 C           6.0     0.7925132847        1.3786873889        1.0917324976
 C           6.0    -1.5143130230        2.1838051459       -0.4543279220
 H           1.0    -4.0072206487       -0.0075778012        1.8892913507
 H           1.0    -4.9535765261        0.0095431162       -1.4058049568
 H           1.0    -0.9901030340       -2.3060137256       -2.5068538035
 H           1.0    -2.3381390673       -4.0352641824        0.1090749840
 H           1.0     0.9089015083       -2.0708184291        3.0715606204
 H           1.0     0.9127565493        2.0150148207        3.0932924693
 H           1.0    -0.9775552534        2.3138182939       -2.4858778451
 H           1.0    -2.3174465678        4.0272706415        0.1444884490

          INTERNUCLEAR DISTANCES (ANGS.)
          ------------------------------

                1 C          2 C          3 C          4 BR         5 C     

   1 C       0.0000000    1.5086874 *  2.3764822 *  3.7223758    2.3761563 *
   2 C       1.5086874 *  0.0000000    1.5300710 *  2.9940218 *  2.3998709 *
   3 C       2.3764822 *  1.5300710 *  0.0000000    1.9822132 *  1.4765724 *
   4 BR      3.7223758    2.9940218 *  1.9822132 *  0.0000000    1.9822199 *
   5 C       2.3761563 *  2.3998709 *  1.4765724 *  1.9822199 *  0.0000000  
   6 C       1.5086335 *  2.3150312 *  2.3998723 *  2.9931315 *  1.5300421 *
   7 H       1.1146331 *  2.1502691 *  2.6779371 *  4.3186598    2.6772016 *
   8 H       1.1106038 *  2.2112809 *  3.3939521    4.5802831    3.3937469  
   9 H       2.1496987 *  1.1140444 *  2.1692665 *  2.8923161 *  2.8841163 *
  10 H       2.1990858 *  1.1102737 *  2.2190614 *  3.8648644    3.3500503  
  11 H       3.0004488    2.2768460 *  1.1132196 *  2.7620906 *  2.1055906 *
  12 H       2.9979884 *  3.1909540    2.1048077 *  2.7634795 *  1.1132377 *
  13 H       2.1496304 *  2.6267731 *  2.8833464 *  2.8908454 *  2.1694272 *
  14 H       2.1991545 *  3.3332106    3.3504078    3.8635962    2.2190210 *

                6 C          7 H          8 H          9 H         10 H     

   1 C       1.5086335 *  1.1146331 *  1.1106038 *  2.1496987 *  2.1990858 *
   2 C       2.3150312 *  2.1502691 *  2.2112809 *  1.1140444 *  1.1102737 *
   3 C       2.3998723 *  2.6779371 *  3.3939521    2.1692665 *  2.2190614 *
   4 BR      2.9931315 *  4.3186598    4.5802831    2.8923161 *  3.8648644  
   5 C       1.5300421 *  2.6772016 *  3.3937469    2.8841163 *  3.3500503  
   6 C       0.0000000    2.1501338 *  2.2112555 *  2.6270936 *  3.3330999  
   7 H       2.1501338 *  0.0000000    1.8142016 *  3.0725062    2.4920406 *
   8 H       2.2112555 *  1.8142016 *  0.0000000    2.4979876 *  2.6719962 *
   9 H       2.6270936 *  3.0725062    2.4979876 *  0.0000000    1.8062388 *
  10 H       3.3330999    2.4920406 *  2.6719962 *  1.8062388 *  0.0000000  
  11 H       3.1929031    2.8898592 *  4.0558374    3.1208110    2.5476816 *
  12 H       2.2763707 *  2.8861598 *  4.0535688    3.8761574    3.9628187  
  13 H       1.1140667 *  3.0724132    2.4980858 *  2.4447442 *  3.7003007  
  14 H       1.1102600 *  2.4921763 *  2.6719377 *  3.7005327    4.2665652  

               11 H         12 H         13 H         14 H     

   1 C       3.0004488    2.9979884 *  2.1496304 *  2.1991545 *
   2 C       2.2768460 *  3.1909540    2.6267731 *  3.3332106  
   3 C       1.1132196 *  2.1048077 *  2.8833464 *  3.3504078  
   4 BR      2.7620906 *  2.7634795 *  2.8908454 *  3.8635962  
   5 C       2.1055906 *  1.1132377 *  2.1694272 *  2.2190210 *
   6 C       3.1929031    2.2763707 *  1.1140667 *  1.1102600 *
   7 H       2.8898592 *  2.8861598 *  3.0724132    2.4921763 *
   8 H       4.0558374    4.0535688    2.4980858 *  2.6719377 *
   9 H       3.1208110    3.8761574    2.4447442 *  3.7005327  
  10 H       2.5476816 *  3.9628187    3.7003007    4.2665652  
  11 H       0.0000000    2.1621615 *  3.8767021    3.9657859  
  12 H       2.1621615 *  0.0000000    3.1212354    2.5476920 *
  13 H       3.8767021    3.1212354    0.0000000    1.8061971 *
  14 H       3.9657859    2.5476920 *  1.8061971 *  0.0000000  

  * ... LESS THAN  3.000


     ATOMIC BASIS SET
     ----------------
 THE CONTRACTED PRIMITIVE FUNCTIONS HAVE BEEN UNNORMALIZED
 THE CONTRACTED BASIS FUNCTIONS ARE NOW NORMALIZED TO UNITY

  SHELL TYPE  PRIMITIVE        EXPONENT          CONTRACTION COEFFICIENT(S)

 C         

      1   S       1            71.6168373    0.154328967295
      1   S       2            13.0450963    0.535328142282
      1   S       3             3.5305122    0.444634542185

      2   L       4             2.9412494   -0.099967229187    0.155916274999
      2   L       5             0.6834831    0.399512826089    0.607683718598
      2   L       6             0.2222899    0.700115468880    0.391957393099

 C         

      3   S       7            71.6168373    0.154328967295
      3   S       8            13.0450963    0.535328142282
      3   S       9             3.5305122    0.444634542185

      4   L      10             2.9412494   -0.099967229187    0.155916274999
      4   L      11             0.6834831    0.399512826089    0.607683718598
      4   L      12             0.2222899    0.700115468880    0.391957393099

 C         

      5   S      13            71.6168373    0.154328967295
      5   S      14            13.0450963    0.535328142282
      5   S      15             3.5305122    0.444634542185

      6   L      16             2.9412494   -0.099967229187    0.155916274999
      6   L      17             0.6834831    0.399512826089    0.607683718598
      6   L      18             0.2222899    0.700115468880    0.391957393099

 BR        

      7   S      19          2629.9974710    0.154328967295
      7   S      20           479.0573224    0.535328142282
      7   S      21           129.6516070    0.444634542185

      8   L      22           219.8350255   -0.099967229187    0.155916274999
      8   L      23            51.0849322    0.399512826089    0.607683718598
      8   L      24            16.6144055    0.700115468880    0.391957393099

      9   L      25            20.6524416   -0.219620369005    0.010587604289
      9   L      26             5.7619788    0.225595433605    0.595167005266
      9   L      27             2.2551994    0.900398426019    0.462001011973

     10   D      28            22.3657496    0.168659606013
     10   D      29             7.0128139    0.584798481745
     10   D      30             2.7316638    0.405677952331

     11   L      31             1.3960375   -0.308844121382   -0.121546859998
     11   L      32             0.5152256    0.019606411652    0.571522760389
     11   L      33             0.2275291    1.131034441567    0.549894947089

 C         

     12   S      34            71.6168373    0.154328967295
     12   S      35            13.0450963    0.535328142282
     12   S      36             3.5305122    0.444634542185

     13   L      37             2.9412494   -0.099967229187    0.155916274999
     13   L      38             0.6834831    0.399512826089    0.607683718598
     13   L      39             0.2222899    0.700115468880    0.391957393099

 C         

     14   S      40            71.6168373    0.154328967295
     14   S      41            13.0450963    0.535328142282
     14   S      42             3.5305122    0.444634542185

     15   L      43             2.9412494   -0.099967229187    0.155916274999
     15   L      44             0.6834831    0.399512826089    0.607683718598
     15   L      45             0.2222899    0.700115468880    0.391957393099

 H         

     16   S      46             3.4252509    0.154328967295
     16   S      47             0.6239137    0.535328142282
     16   S      48             0.1688554    0.444634542185

 H         

     17   S      49             3.4252509    0.154328967295
     17   S      50             0.6239137    0.535328142282
     17   S      51             0.1688554    0.444634542185

 H         

     18   S      52             3.4252509    0.154328967295
     18   S      53             0.6239137    0.535328142282
     18   S      54             0.1688554    0.444634542185

 H         

     19   S      55             3.4252509    0.154328967295
     19   S      56             0.6239137    0.535328142282
     19   S      57             0.1688554    0.444634542185

 H         

     20   S      58             3.4252509    0.154328967295
     20   S      59             0.6239137    0.535328142282
     20   S      60             0.1688554    0.444634542185

 H         

     21   S      61             3.4252509    0.154328967295
     21   S      62             0.6239137    0.535328142282
     21   S      63             0.1688554    0.444634542185

 H         

     22   S      64             3.4252509    0.154328967295
     22   S      65             0.6239137    0.535328142282
     22   S      66             0.1688554    0.444634542185

 H         

     23   S      67             3.4252509    0.154328967295
     23   S      68             0.6239137    0.535328142282
     23   S      69             0.1688554    0.444634542185

 TOTAL NUMBER OF BASIS SET SHELLS             =   23
 NUMBER OF CARTESIAN GAUSSIAN BASIS FUNCTIONS =   52
 NUMBER OF ELECTRONS                          =   72
 CHARGE OF MOLECULE                           =    1
 SPIN MULTIPLICITY                            =    1
 NUMBER OF OCCUPIED ORBITALS (ALPHA)          =   36
 NUMBER OF OCCUPIED ORBITALS (BETA )          =   36
 TOTAL NUMBER OF ATOMS                        =   14
 THE NUCLEAR REPULSION ENERGY IS      431.6761894576

     $CONTRL OPTIONS
     ---------------
 SCFTYP=UHF          RUNTYP=OPTIMIZE     EXETYP=RUN     
 MPLEVL=       0     CITYP =NONE         CCTYP =NONE         VBTYP =NONE    
 DFTTYP=NONE         TDDFT =NONE    
 MULT  =       1     ICHARG=       1     NZVAR =       0     COORD =UNIQUE  
 PP    =NONE         RELWFN=NONE         LOCAL =NONE         NUMGRD=       F
 ISPHER=      -1     NOSYM =       0     MAXIT =      30     UNITS =ANGS    
 PLTORB=       F     MOLPLT=       F     AIMPAC=       F     FRIEND=        
 NPRINT=       7     IREST =       0     GEOM  =INPUT   
 NORMF =       0     NORMP =       0     ITOL  =      20     ICUT  =       9
 INTTYP=BEST         GRDTYP=BEST         QMTTOL= 1.0E-06

     $SYSTEM OPTIONS
     ---------------
  REPLICATED MEMORY=     1000000 WORDS (ON EVERY NODE).
 DISTRIBUTED MEMDDI=           0 MILLION WORDS IN AGGREGATE,
 MEMDDI DISTRIBUTED OVER   1 PROCESSORS IS           0 WORDS/PROCESSOR.
 TOTAL MEMORY REQUESTED ON EACH PROCESSOR=     1000000 WORDS.
 TIMLIM=      525600.00 MINUTES, OR     365.0 DAYS.
 PARALL= F  BALTYP=  DLB     KDIAG=    0  COREFL= F
 MXSEQ2=     300 MXSEQ3=     150  mem10=         0

          ----------------
          PROPERTIES INPUT
          ----------------

     MOMENTS            FIELD           POTENTIAL          DENSITY
 IEMOM =       1   IEFLD =       0   IEPOT =       0   IEDEN =       0
 WHERE =COMASS     WHERE =NUCLEI     WHERE =NUCLEI     WHERE =NUCLEI  
 OUTPUT=BOTH       OUTPUT=BOTH       OUTPUT=BOTH       OUTPUT=BOTH    
 IEMINT=       0   IEFINT=       0                     IEDINT=       0
                                                       MORB  =       0
          EXTRAPOLATION IN EFFECT
          SOSCF IN EFFECT
          DIIS or SOSCF will be reset if energy rises
 ORBITAL PRINTING OPTION: NPREO=     1    52     2     1

     -------------------------------
     INTEGRAL TRANSFORMATION OPTIONS
     -------------------------------
     NWORD  =            0
     CUTOFF = 1.0E-09     MPTRAN =       0
     DIRTRF =       F     AOINTS =DUP     

          ----------------------
          INTEGRAL INPUT OPTIONS
          ----------------------
 NOPK  =       1 NORDER=       0 SCHWRZ=       T

     ------------------------------------------
     THE POINT GROUP IS C1 , NAXIS= 0, ORDER= 1
     ------------------------------------------

     DIMENSIONS OF THE SYMMETRY SUBSPACES ARE
 A   =   52

 ..... DONE SETTING UP THE RUN .....
 STEP CPU TIME =     0.02 TOTAL CPU TIME =          0.0 (      0.0 MIN)
 TOTAL WALL CLOCK TIME=          0.0 SECONDS, CPU UTILIZATION IS    50.00%


          -----------------------------
          STATIONARY POINT LOCATION RUN
          -----------------------------

 OBTAINING INITIAL HESSIAN, HESS=GUESS   
 CARTESIAN COORDINATE OPTIMIZATION USING BADGER'S RULE FORCE CONSTANT GUESS

          PARAMETERS CONTROLLING GEOMETRY SEARCH ARE
          METHOD =QA                  UPHESS =BFGS    
          NNEG   =         0          NFRZ   =         0
          NSTEP  =        20          IFOLOW =         1
          HESS   =GUESS               RESTAR =         F
          IHREP  =         0          HSSEND =         F
          NPRT   =         0          NPUN   =         0
          OPTTOL = 1.000E-04          RMIN   = 1.500E-03
          RMAX   = 1.000E-01          RLIM   = 7.000E-02
          DXMAX  = 3.000E-01          PURIFY =         F
          MOVIE  =         F          TRUPD  =         T
          TRMAX  = 5.000E-01          TRMIN  = 5.000E-02
          ITBMAT =         5          STPT   =         F
          STSTEP = 1.000E-02          PROJCT=          T

 BEGINNING GEOMETRY SEARCH POINT NSERCH=   0 ...

 COORDINATES OF ALL ATOMS ARE (ANGS)
   ATOM   CHARGE       X              Y              Z
 ------------------------------------------------------------
 C           6.0  -1.7523700000  -0.0002900000  -0.0523000000
 C           6.0  -0.8072700000  -1.1593800000  -0.2508800000
 C           6.0   0.4161700000  -0.7469800000   0.5702400000
 BR         35.0   1.9492000000  -0.0068800000  -0.4452600000
 C           6.0   0.4193800000   0.7295700000   0.5777200000
 C           6.0  -0.8013400000   1.1556200000  -0.2404200000
 H           1.0  -2.1205300000  -0.0040100000   0.9997700000
 H           1.0  -2.6213200000   0.0050500000  -0.7439200000
 H           1.0  -0.5239400000  -1.2202900000  -1.3265700000
 H           1.0  -1.2372900000  -2.1353700000   0.0577200000
 H           1.0   0.4809700000  -1.0958300000   1.6254000000
 H           1.0   0.4830100000   1.0663000000   1.6369000000
 H           1.0  -0.5173000000   1.2244200000  -1.3154700000
 H           1.0  -1.2263400000   2.1311400000   0.0764600000

          ********************
          1 ELECTRON INTEGRALS
          ********************
 ...... END OF ONE-ELECTRON INTEGRALS ......
 STEP CPU TIME =     0.02 TOTAL CPU TIME =          0.0 (      0.0 MIN)
 TOTAL WALL CLOCK TIME=          0.0 SECONDS, CPU UTILIZATION IS    80.00%

          -------------
          GUESS OPTIONS
          -------------
          GUESS =HUCKEL            NORB  =       0          NORDER=       0
          MIX   =       F          PRTMO =       F          PUNMO =       F
          TOLZ  = 1.0E-08          TOLE  = 1.0E-05
          SYMDEN=       F          PURIFY=       F

 INITIAL GUESS ORBITALS GENERATED BY HUCKEL   ROUTINE.
 HUCKEL GUESS REQUIRES     39958 WORDS.

 SYMMETRIES FOR INITIAL GUESS ORBITALS FOLLOW.  ALPHA SET(S).
    36 ORBITALS ARE OCCUPIED (   19 CORE ORBITALS).
    20=A       21=A       22=A       23=A       24=A       25=A       26=A   
    27=A       28=A       29=A       30=A       31=A       32=A       33=A   
    34=A       35=A       36=A       37=A       38=A       39=A       40=A   
    41=A       42=A       43=A       44=A       45=A       46=A   

 SYMMETRIES FOR INITIAL GUESS ORBITALS FOLLOW.   BETA SET(S).
    36 ORBITALS ARE OCCUPIED (   19 CORE ORBITALS).
    20=A       21=A       22=A       23=A       24=A       25=A       26=A   
    27=A       28=A       29=A       30=A       31=A       32=A       33=A   
    34=A       35=A       36=A       37=A       38=A       39=A       40=A   
    41=A       42=A       43=A       44=A       45=A       46=A   
 ...... END OF INITIAL ORBITAL SELECTION ......
 STEP CPU TIME =     0.03 TOTAL CPU TIME =          0.1 (      0.0 MIN)
 TOTAL WALL CLOCK TIME=          0.1 SECONDS, CPU UTILIZATION IS    87.50%

                    ----------------------
                    AO INTEGRAL TECHNOLOGY
                    ----------------------
     S,P,L SHELL ROTATED AXIS INTEGRALS, REPROGRAMMED BY
        KAZUYA ISHIMURA (IMS) AND JOSE SIERRA (SYNSTAR).
     S,P,D,L SHELL ROTATED AXIS INTEGRALS PROGRAMMED BY
        KAZUYA ISHIMURA (INSTITUTE FOR MOLECULAR SCIENCE).
     S,P,D,F,G SHELL TO TOTAL QUARTET ANGULAR MOMENTUM SUM 5,
        ERIC PROGRAM BY GRAHAM FLETCHER (ELORET AND NASA ADVANCED
        SUPERCOMPUTING DIVISION, AMES RESEARCH CENTER).
     S,P,D,F,G,L SHELL GENERAL RYS QUADRATURE PROGRAMMED BY
        MICHEL DUPUIS (PACIFIC NORTHWEST NATIONAL LABORATORY).

          --------------------
          2 ELECTRON INTEGRALS
          --------------------

 THE -PK- OPTION IS OFF, THE INTEGRALS ARE NOT IN SUPERMATRIX FORM.
 STORING   15000 INTEGRALS/RECORD ON DISK, USING 12 BYTES/INTEGRAL.
 TWO ELECTRON INTEGRAL EVALUATION REQUIRES   90672 WORDS OF MEMORY.
 SCHWARZ INEQUALITY OVERHEAD:      1323 INTEGRALS, T=        0.00
 II,JST,KST,LST =  1  1  1  1 NREC =         1 INTLOC =    1
 II,JST,KST,LST =  2  1  1  1 NREC =         1 INTLOC =    2
 II,JST,KST,LST =  3  1  1  1 NREC =         1 INTLOC =   34
 II,JST,KST,LST =  4  1  1  1 NREC =         1 INTLOC =  142
 II,JST,KST,LST =  5  1  1  1 NREC =         1 INTLOC = 1362
 II,JST,KST,LST =  6  1  1  1 NREC =         1 INTLOC = 1938
 II,JST,KST,LST =  7  1  1  1 NREC =         1 INTLOC = 6820
 II,JST,KST,LST =  8  1  1  1 NREC =         1 INTLOC = 8112
 II,JST,KST,LST =  9  1  1  1 NREC =         2 INTLOC =  930
 II,JST,KST,LST = 10  1  1  1 NREC =         3 INTLOC =  903
 II,JST,KST,LST = 11  1  1  1 NREC =         5 INTLOC = 9578
 II,JST,KST,LST = 12  1  1  1 NREC =         8 INTLOC =12196
 II,JST,KST,LST = 13  1  1  1 NREC =         9 INTLOC = 6304
 II,JST,KST,LST = 14  1  1  1 NREC =        15 INTLOC = 8916
 II,JST,KST,LST = 15  1  1  1 NREC =        16 INTLOC = 8341
 II,JST,KST,LST = 16  1  1  1 NREC =        25 INTLOC = 4379
 II,JST,KST,LST = 17  1  1  1 NREC =        27 INTLOC = 7791
 II,JST,KST,LST = 18  1  1  1 NREC =        29 INTLOC =10352
 II,JST,KST,LST = 19  1  1  1 NREC =        32 INTLOC =10841
 II,JST,KST,LST = 20  1  1  1 NREC =        35 INTLOC =11515
 II,JST,KST,LST = 21  1  1  1 NREC =        39 INTLOC = 3672
 II,JST,KST,LST = 22  1  1  1 NREC =        42 INTLOC =14270
 II,JST,KST,LST = 23  1  1  1 NREC =        46 INTLOC =13456
 SCHWARZ INEQUALITY TEST SKIPPED        7519 INTEGRAL BLOCKS.
 TOTAL NUMBER OF NONZERO TWO-ELECTRON INTEGRALS =              747772
         50 INTEGRAL RECORDS WERE STORED ON DISK FILE  8.
  ...... END OF TWO-ELECTRON INTEGRALS .....
 STEP CPU TIME =     0.14 TOTAL CPU TIME =          0.2 (      0.0 MIN)
 TOTAL WALL CLOCK TIME=          0.2 SECONDS, CPU UTILIZATION IS    91.30%

          ---------------------------
                  UHF SCF CALCULATION
          ---------------------------

     NUCLEAR ENERGY =       431.6761894576
     MAXIT = 30     NPUNCH=  2     MULT=  1
     EXTRAP=T  DAMP=F  SHIFT=F  RSTRCT=F  DIIS=F  SOSCF=T
     DENSITY MATRIX CONV=  1.00E-05
     SOSCF WILL OPTIMIZE     576 ALPHA AND     576 BETA ROTATION ANGLES.
     SOGTOL= 2.500E-01
     MEMORY REQUIRED FOR UHF/ROHF ITERS=     65936 WORDS.

 ITER EX      TOTAL ENERGY        E CHANGE  DENSITY CHANGE    ORB. GRAD 
   1  0    -2736.7400977665 -2736.7400977665  12.337082482   0.000000000
          ---------------START SECOND ORDER SCF---------------
   2  1    -2737.4034316470    -0.6633338805   0.190885240   0.033277066
   3  2    -2737.4177862714    -0.0143546244   0.039268523   0.008580804
   4  3    -2737.4191097299    -0.0013234585   0.017233824   0.003144469
   5  4    -2737.4191703338    -0.0000606039   0.001410902   0.000481209
   6  5    -2737.4191744488    -0.0000041150   0.000715276   0.000140464
   7  6    -2737.4191746716    -0.0000002227   0.000084410   0.000017287
   8  7    -2737.4191746804    -0.0000000088   0.000024892   0.000005430
   9  8    -2737.4191746811    -0.0000000007   0.000007012   0.000001778
  10  9    -2737.4191746812    -0.0000000001   0.000001518   0.000000409

          -----------------
          DENSITY CONVERGED
          -----------------
     TIME TO FORM FOCK OPERATORS=       0.2 SECONDS (       0.0 SEC/ITER)
     TIME TO SOLVE SCF EQUATIONS=       0.0 SECONDS (       0.0 SEC/ITER)

 FINAL UHF ENERGY IS    -2737.4191746812 AFTER  10 ITERATIONS

          --------------------
          SPIN SZ   =    0.000
          S-SQUARED =   -0.000
          --------------------

  ----- ALPHA SET ----- 

          ------------
          EIGENVECTORS
          ------------

                      1          2          3          4          5
                 -485.1987   -64.1036   -58.2345   -58.2333   -58.2320
                     A          A          A          A          A   
    1  C  1  S   -0.000000  -0.000002  -0.000000  -0.000000  -0.000000
    2  C  1  S    0.000000   0.000017   0.000003   0.000000  -0.000001
    3  C  1  X    0.000000  -0.000004  -0.000000   0.000000   0.000004
    4  C  1  Y    0.000000   0.000000   0.000000   0.000001  -0.000000
    5  C  1  Z   -0.000000  -0.000040  -0.000002   0.000000  -0.000001
    6  C  2  S   -0.000000  -0.000009  -0.000000  -0.000001  -0.000002
    7  C  2  S    0.000001   0.000199   0.000008   0.000014   0.000031
    8  C  2  X    0.000000   0.000068   0.000008   0.000007   0.000003
    9  C  2  Y   -0.000000  -0.000055  -0.000001  -0.000002  -0.000001
   10  C  2  Z   -0.000001  -0.000188  -0.000015  -0.000008   0.000004
   11  C  3  S    0.000002   0.000370   0.000034   0.000023   0.000001
   12  C  3  S   -0.000013  -0.002263  -0.000227  -0.000160  -0.000007
   13  C  3  X   -0.000011  -0.002048  -0.000205  -0.000123   0.000043
   14  C  3  Y   -0.000002  -0.000351  -0.000062  -0.000009  -0.000004
   15  C  3  Z    0.000008   0.001403   0.000136   0.000085   0.000081
   16  BR 4  S    0.994694   0.419596  -0.000853  -0.000000  -0.000007
   17  BR 4  S    0.014821  -1.059842   0.002171   0.000001   0.000017
   18  BR 4  X   -0.000007   0.001469   0.803639   0.002731   0.583070
   19  BR 4  Y   -0.000000   0.000002   0.000831   0.992876  -0.005797
   20  BR 4  Z    0.000005  -0.001057  -0.583050   0.005181   0.803660
   21  BR 4  S   -0.073405   2.443307  -0.004683  -0.000002  -0.000030
   22  BR 4  X    0.000004   0.000485   0.015111   0.000051   0.010894
   23  BR 4  Y    0.000000   0.000001   0.000016   0.018599  -0.000108
   24  BR 4  Z   -0.000003  -0.000323  -0.010961   0.000097   0.015013
   25  BR 4 XX    0.032047  -1.127661   0.002069   0.000000  -0.000072
   26  BR 4 YY    0.032047  -1.127681   0.002183   0.000001   0.000013
   27  BR 4 ZZ    0.032047  -1.127661   0.002123   0.000001   0.000097
   28  BR 4 XY    0.000000  -0.000000  -0.000000  -0.000081   0.000000
   29  BR 4 XZ   -0.000001   0.000010   0.000093  -0.000000  -0.000033
   30  BR 4 YZ    0.000000  -0.000000   0.000000   0.000058  -0.000000
   31  BR 4  S    0.000098   0.019448   0.000184   0.000000   0.000010
   32  BR 4  X   -0.000012  -0.002015  -0.001252  -0.000004  -0.000773
   33  BR 4  Y   -0.000000  -0.000002  -0.000001  -0.001360   0.000008
   34  BR 4  Z    0.000008   0.001319   0.000896  -0.000007  -0.001048
   35  C  5  S    0.000002   0.000370   0.000034  -0.000023   0.000001
   36  C  5  S   -0.000013  -0.002263  -0.000227   0.000160  -0.000007
   37  C  5  X   -0.000011  -0.002046  -0.000204   0.000123   0.000042
   38  C  5  Y    0.000002   0.000346   0.000062  -0.000009   0.000003
   39  C  5  Z    0.000008   0.001407   0.000137  -0.000085   0.000081
   40  C  6  S   -0.000000  -0.000009  -0.000000   0.000001  -0.000002
   41  C  6  S    0.000001   0.000200   0.000008  -0.000014   0.000031
   42  C  6  X    0.000000   0.000068   0.000008  -0.000007   0.000003
   43  C  6  Y    0.000000   0.000056   0.000001  -0.000002   0.000001
   44  C  6  Z   -0.000001  -0.000187  -0.000015   0.000008   0.000004
   45  H  7  S   -0.000000  -0.000035  -0.000004  -0.000000   0.000000
   46  H  8  S   -0.000000  -0.000002  -0.000001   0.000000   0.000002
   47  H  9  S   -0.000002  -0.000406  -0.000018  -0.000021  -0.000036
   48  H 10  S   -0.000000  -0.000026  -0.000001  -0.000001  -0.000005
   49  H 11  S   -0.000000  -0.000089  -0.000008   0.000000  -0.000021
   50  H 12  S   -0.000000  -0.000090  -0.000008  -0.000000  -0.000021
   51  H 13  S   -0.000002  -0.000407  -0.000018   0.000021  -0.000036
   52  H 14  S   -0.000000  -0.000026  -0.000001   0.000001  -0.000005

                      6          7          8          9         10
                  -11.3596   -11.3595   -11.2660   -11.2659   -11.2432
                     A          A          A          A          A   
    1  C  1  S   -0.000573  -0.000053  -0.000655  -0.005814   0.991915
    2  C  1  S    0.000063   0.000005  -0.000960  -0.008499   0.037407
    3  C  1  X   -0.000365  -0.000034  -0.000400  -0.003654   0.001202
    4  C  1  Y   -0.000006   0.000099   0.004756  -0.000532  -0.000003
    5  C  1  Z   -0.000350  -0.000032   0.000112   0.000799   0.000203
    6  C  2  S   -0.000984   0.000388   0.775666   0.618297   0.005082
    7  C  2  S   -0.004077   0.003596   0.029199   0.023179  -0.005847
    8  C  2  X   -0.002474   0.002011   0.000550   0.000056   0.002897
    9  C  2  Y   -0.000908   0.000617   0.000957   0.000238  -0.003273
   10  C  2  Z   -0.001558   0.001462   0.000079   0.000259  -0.000562
   11  C  3  S    0.762725  -0.634637   0.001300   0.001535   0.000536
   12  C  3  S    0.023117  -0.026926  -0.004746  -0.003491  -0.000034
   13  C  3  X   -0.000058   0.000850   0.002799   0.002178   0.000177
   14  C  3  Y   -0.000480  -0.005189   0.000946   0.000766  -0.000114
   15  C  3  Z   -0.000196  -0.000542   0.001798   0.001550  -0.000110
   16  BR 4  S    0.000042   0.000004  -0.000000   0.000000  -0.000000
   17  BR 4  S   -0.000134  -0.000012   0.000000   0.000002  -0.000000
   18  BR 4  X    0.000109   0.000010   0.000000   0.000002  -0.000002
   19  BR 4  Y    0.000008  -0.000082   0.000000  -0.000000   0.000000
   20  BR 4  Z   -0.000073  -0.000007  -0.000000  -0.000002  -0.000001
   21  BR 4  S   -0.000814  -0.000074  -0.000000  -0.000004  -0.000002
   22  BR 4  X   -0.000369  -0.000033  -0.000001  -0.000007   0.000007
   23  BR 4  Y   -0.000026   0.000278  -0.000001   0.000000  -0.000000
   24  BR 4  Z    0.000249   0.000024   0.000001   0.000007   0.000003
   25  BR 4 XX    0.000362   0.000033   0.000001   0.000011  -0.000000
   26  BR 4 YY    0.000405   0.000037   0.000001   0.000006  -0.000001
   27  BR 4 ZZ    0.000394   0.000036   0.000000   0.000004  -0.000001
   28  BR 4 XY   -0.000004   0.000037   0.000003  -0.000000  -0.000000
   29  BR 4 XZ    0.000042   0.000004  -0.000000  -0.000002   0.000000
   30  BR 4 YZ    0.000002  -0.000024  -0.000000   0.000000  -0.000000
   31  BR 4  S   -0.004230  -0.000386   0.000012   0.000109  -0.000013
   32  BR 4  X    0.003603   0.000323  -0.000011  -0.000097  -0.000027
   33  BR 4  Y    0.000239  -0.002566  -0.000065   0.000008   0.000000
   34  BR 4  Z   -0.002408  -0.000233  -0.000006  -0.000045  -0.000029
   35  C  5  S    0.635176   0.762276  -0.000924   0.001786   0.000537
   36  C  5  S    0.017859   0.030668   0.003848  -0.004462  -0.000035
   37  C  5  X    0.000099  -0.000873  -0.002238   0.002742   0.000179
   38  C  5  Y    0.001412  -0.005020   0.000776  -0.000989   0.000115
   39  C  5  Z   -0.000278   0.000446  -0.001402   0.001905  -0.000109
   40  C  6  S   -0.000896  -0.000559  -0.618189   0.775752   0.005085
   41  C  6  S   -0.003359  -0.004275  -0.023293   0.029109  -0.005847
   42  C  6  X   -0.002065  -0.002421  -0.000519   0.000175   0.002914
   43  C  6  Y    0.000804   0.000799   0.000883  -0.000449   0.003263
   44  C  6  Z   -0.001262  -0.001714  -0.000012   0.000267  -0.000533
   45  H  7  S   -0.000096  -0.000009   0.000008   0.000068  -0.006730
   46  H  8  S   -0.000224  -0.000021   0.000023   0.000208  -0.006585
   47  H  9  S    0.000029   0.000060  -0.005295  -0.004153  -0.000013
   48  H 10  S   -0.000006  -0.000105  -0.005025  -0.004261   0.000089
   49  H 11  S   -0.004843   0.004251   0.000084  -0.000018   0.000068
   50  H 12  S   -0.003994  -0.005057  -0.000085   0.000002   0.000069
   51  H 13  S    0.000041  -0.000053   0.004235  -0.005230  -0.000013
   52  H 14  S   -0.000025   0.000102   0.003948  -0.005275   0.000089

                     11         12         13         14         15
                   -9.5822    -7.2749    -7.2672    -7.2604    -2.6625
                     A          A          A          A          A   
    1  C  1  S   -0.000007   0.000013   0.000000   0.000019  -0.000010
    2  C  1  S    0.000030  -0.000085  -0.000000  -0.000015  -0.000013
    3  C  1  X    0.000017  -0.000040  -0.000000  -0.000122   0.000015
    4  C  1  Y    0.000000  -0.000000  -0.000029   0.000000  -0.000000
    5  C  1  Z   -0.000052   0.000060  -0.000000   0.000023   0.000066
    6  C  2  S    0.000006  -0.000022   0.000010   0.000019  -0.000035
    7  C  2  S    0.000224  -0.000197  -0.000340  -0.000699   0.000255
    8  C  2  X    0.000032  -0.000108  -0.000100   0.000014   0.000527
    9  C  2  Y   -0.000085   0.000076   0.000060   0.000081   0.000579
   10  C  2  Z   -0.000200   0.000278   0.000149  -0.000127  -0.000593
   11  C  3  S    0.000610  -0.000959  -0.000649  -0.000018   0.002980
   12  C  3  S   -0.003146   0.006633   0.004312   0.000123  -0.009267
   13  C  3  X   -0.002655   0.005422   0.003192  -0.001196  -0.008131
   14  C  3  Y   -0.000495   0.001657   0.000035   0.000080  -0.006263
   15  C  3  Z    0.001809  -0.003598  -0.002179  -0.002106   0.005522
   16  BR 4  S    0.170423   0.002584   0.000001   0.000030   0.000106
   17  BR 4  S   -0.524628  -0.007998  -0.000002  -0.000094  -0.000278
   18  BR 4  X    0.004760  -0.340285  -0.001094  -0.242143   0.001706
   19  BR 4  Y    0.000006  -0.000385  -0.417884   0.002432   0.000002
   20  BR 4  Z   -0.003321   0.241855  -0.002205  -0.340734  -0.001237
   21  BR 4  S    2.305697   0.033840   0.000008   0.000365   0.002168
   22  BR 4  X   -0.011910   0.868061   0.002792   0.617970  -0.004403
   23  BR 4  Y   -0.000016   0.000982   1.066308  -0.006207  -0.000004
   24  BR 4  Z    0.008314  -0.616975   0.005627   0.869591   0.003200
   25  BR 4 XX   -0.550702  -0.011142  -0.000022  -0.004570  -0.551150
   26  BR 4 YY   -0.551309  -0.004472  -0.000012  -0.000052   0.701564
   27  BR 4 ZZ   -0.551730  -0.007740   0.000029   0.004387  -0.151979
   28  BR 4 XY    0.000007  -0.000010  -0.004652   0.000023   0.000251
   29  BR 4 XZ   -0.001752   0.005455  -0.000016  -0.001837   0.673146
   30  BR 4 YZ    0.000007   0.000006   0.003253  -0.000023   0.003448
   31  BR 4  S    0.031371  -0.006605  -0.000002  -0.000235   0.006112
   32  BR 4  X   -0.003677   0.042726   0.000122   0.025820  -0.006675
   33  BR 4  Y   -0.000004   0.000048   0.046460  -0.000258  -0.000006
   34  BR 4  Z    0.002436  -0.030107   0.000244   0.035997   0.004514
   35  C  5  S    0.000609  -0.000959   0.000648  -0.000018   0.002983
   36  C  5  S   -0.003145   0.006634  -0.004308   0.000124  -0.009277
   37  C  5  X   -0.002653   0.005416  -0.003190  -0.001192  -0.008110
   38  C  5  Y    0.000489  -0.001644   0.000027  -0.000054   0.006246
   39  C  5  Z    0.001815  -0.003617   0.002176  -0.002109   0.005596
   40  C  6  S    0.000006  -0.000023  -0.000010   0.000019  -0.000036
   41  C  6  S    0.000225  -0.000198   0.000339  -0.000699   0.000259
   42  C  6  X    0.000032  -0.000108   0.000100   0.000015   0.000528
   43  C  6  Y    0.000086  -0.000079   0.000061  -0.000081  -0.000576
   44  C  6  Z   -0.000199   0.000277  -0.000148  -0.000127  -0.000598
   45  H  7  S   -0.000041   0.000089  -0.000000  -0.000004  -0.000118
   46  H  8  S    0.000000   0.000003  -0.000000  -0.000051   0.000007
   47  H  9  S   -0.000538   0.000496   0.000557   0.000981   0.000080
   48  H 10  S   -0.000034   0.000041   0.000028   0.000107   0.000038
   49  H 11  S   -0.000123   0.000168  -0.000013   0.000435  -0.000200
   50  H 12  S   -0.000124   0.000171   0.000012   0.000438  -0.000206
   51  H 13  S   -0.000540   0.000497  -0.000557   0.000986   0.000080
   52  H 14  S   -0.000034   0.000041  -0.000028   0.000107   0.000038

                     16         17         18         19         20
                   -2.6611    -2.6540    -2.6473    -2.6462    -1.4010
                     A          A          A          A          A   
    1  C  1  S    0.000000  -0.000019   0.000000  -0.000019  -0.048896
    2  C  1  S   -0.000000  -0.000025  -0.000000   0.000079   0.117609
    3  C  1  X   -0.000000   0.000123  -0.000000   0.000151   0.041088
    4  C  1  Y    0.000023  -0.000001  -0.000057  -0.000001  -0.000100
    5  C  1  Z   -0.000000   0.000023  -0.000000   0.000038   0.000431
    6  C  2  S    0.000042  -0.000047   0.000010   0.000042  -0.064973
    7  C  2  S   -0.000668   0.001327  -0.000661  -0.000206   0.160433
    8  C  2  X   -0.000694   0.000460  -0.000121  -0.000489   0.030072
    9  C  2  Y   -0.000063   0.000196  -0.000029  -0.000207   0.039473
   10  C  2  Z    0.000461   0.000348  -0.000095   0.000198   0.021945
   11  C  3  S   -0.002916   0.000234  -0.000109  -0.001325  -0.135549
   12  C  3  S    0.013335  -0.000731   0.000487   0.004682   0.358472
   13  C  3  X    0.009499   0.002460  -0.001195   0.004301   0.004673
   14  C  3  Y    0.003710  -0.000378   0.000159   0.000512   0.105637
   15  C  3  Z   -0.006597   0.005072  -0.002557  -0.002734  -0.036342
   16  BR 4  S    0.000000  -0.000009  -0.000000  -0.000161  -0.013682
   17  BR 4  S   -0.000000   0.000032   0.000000   0.000478   0.042742
   18  BR 4  X   -0.000006   0.001279  -0.000001  -0.000340  -0.014342
   19  BR 4  Y   -0.001972  -0.000013  -0.000022  -0.000001  -0.000014
   20  BR 4  Z   -0.000010   0.001780  -0.000001   0.000299   0.008889
   21  BR 4  S    0.000001  -0.000065  -0.000000  -0.002525  -0.207220
   22  BR 4  X    0.000014  -0.003406   0.000001   0.000832   0.042839
   23  BR 4  Y    0.005151   0.000034   0.000053   0.000003   0.000042
   24  BR 4  Z    0.000027  -0.004765   0.000002  -0.000745  -0.026549
   25  BR 4 XX    0.003686  -0.818033   0.002731  -0.164517   0.036963
   26  BR 4 YY    0.001626  -0.005289  -0.010122   0.712472   0.052800
   27  BR 4 ZZ   -0.005313   0.823358   0.007390  -0.546200   0.048400
   28  BR 4 XY    0.811612   0.004183   0.583723   0.006229  -0.000028
   29  BR 4 XZ    0.002769  -0.318976   0.005260  -0.666616   0.013388
   30  BR 4 YZ   -0.583560  -0.004147   0.811855   0.009446  -0.000003
   31  BR 4  S   -0.000003   0.000521   0.000001  -0.002551   0.319786
   32  BR 4  X    0.000013  -0.000685  -0.000001   0.003149  -0.097690
   33  BR 4  Y    0.004667   0.000003   0.000146   0.000005  -0.000096
   34  BR 4  Z    0.000022  -0.000029   0.000001  -0.002144   0.060216
   35  C  5  S    0.002913   0.000237   0.000109  -0.001323  -0.135554
   36  C  5  S   -0.013325  -0.000741  -0.000490   0.004676   0.358488
   37  C  5  X   -0.009478   0.002452   0.001189   0.004297   0.004170
   38  C  5  Y    0.003679   0.000319   0.000126  -0.000502  -0.105294
   39  C  5  Z    0.006629   0.005083   0.002558  -0.002735  -0.037446
   40  C  6  S   -0.000042  -0.000047  -0.000010   0.000042  -0.064992
   41  C  6  S    0.000670   0.001327   0.000660  -0.000205   0.160472
   42  C  6  X    0.000694   0.000457   0.000120  -0.000489   0.029872
   43  C  6  Y   -0.000061  -0.000200  -0.000031   0.000208  -0.039833
   44  C  6  Z   -0.000460   0.000347   0.000095   0.000199   0.021609
   45  H  7  S   -0.000000  -0.000001   0.000000   0.000081   0.018800
   46  H  8  S   -0.000000   0.000049  -0.000000   0.000034   0.013814
   47  H  9  S    0.000305  -0.000547   0.000581  -0.000392   0.027206
   48  H 10  S    0.000033  -0.000079   0.000048  -0.000048   0.019529
   49  H 11  S    0.000021  -0.001097   0.000414  -0.000178   0.052190
   50  H 12  S   -0.000025  -0.001100  -0.000414  -0.000174   0.052189
   51  H 13  S   -0.000305  -0.000550  -0.000582  -0.000396   0.027221
   52  H 14  S   -0.000033  -0.000079  -0.000048  -0.000048   0.019533

                     21         22         23         24         25
                   -1.2305    -1.1407    -1.0792    -0.9684    -0.9334
                     A          A          A          A          A   
    1  C  1  S    0.137660   0.000016  -0.081540  -0.142214  -0.000033
    2  C  1  S   -0.369755  -0.000043   0.239256   0.446935   0.000104
    3  C  1  X   -0.075581  -0.000302  -0.004961  -0.105866   0.000286
    4  C  1  Y    0.000169  -0.116624   0.000086   0.000008   0.141321
    5  C  1  Z    0.003969  -0.000539  -0.024343   0.057301   0.000538
    6  C  2  S    0.101597  -0.140757  -0.022376   0.075790   0.077167
    7  C  2  S   -0.275403   0.406444   0.068012  -0.239247  -0.248297
    8  C  2  X    0.039212   0.045280  -0.064517  -0.138922   0.109689
    9  C  2  Y   -0.066266  -0.003493   0.020365   0.077157   0.031455
   10  C  2  Z   -0.008606   0.026775  -0.048352   0.060412   0.083723
   11  C  3  S   -0.026633  -0.095709   0.093128  -0.007697  -0.116944
   12  C  3  S    0.078970   0.299748  -0.292536   0.023750   0.412426
   13  C  3  X    0.112519  -0.062701   0.061870   0.097658   0.060584
   14  C  3  Y    0.056704  -0.083669  -0.079721   0.082221  -0.115865
   15  C  3  Z    0.017551  -0.042318  -0.114522   0.179684   0.108374
   16  BR 4  S   -0.017249   0.000006  -0.025869  -0.000399   0.000010
   17  BR 4  S    0.054562  -0.000020   0.082893   0.001200  -0.000032
   18  BR 4  X   -0.009617  -0.000014  -0.000404   0.003835  -0.000039
   19  BR 4  Y   -0.000023  -0.007406   0.000011  -0.000057  -0.017135
   20  BR 4  Z    0.008282  -0.000036  -0.002263   0.008182  -0.000077
   21  BR 4  S   -0.258667   0.000093  -0.384293  -0.006329   0.000144
   22  BR 4  X    0.028811   0.000041   0.001204  -0.011538   0.000116
   23  BR 4  Y    0.000070   0.022228  -0.000032   0.000172   0.051581
   24  BR 4  Z   -0.024803   0.000107   0.006813  -0.024618   0.000233
   25  BR 4 XX    0.056618  -0.000041   0.090350   0.003901  -0.000052
   26  BR 4 YY    0.060817  -0.000024   0.085014   0.002501  -0.000061
   27  BR 4 ZZ    0.057633   0.000001   0.089226  -0.002372   0.000013
   28  BR 4 XY   -0.000027  -0.005870   0.000014  -0.000025  -0.006150
   29  BR 4 XZ    0.006840  -0.000022  -0.005299   0.003262  -0.000016
   30  BR 4 YZ    0.000005   0.002782  -0.000014   0.000024   0.005660
   31  BR 4  S    0.449817  -0.000173   0.742803   0.007211  -0.000301
   32  BR 4  X   -0.076695  -0.000113  -0.018037   0.037611  -0.000346
   33  BR 4  Y   -0.000182  -0.062033   0.000070  -0.000511  -0.156367
   34  BR 4  Z    0.065214  -0.000300  -0.010055   0.072448  -0.000714
   35  C  5  S   -0.026594   0.095643   0.093203  -0.007715   0.116921
   36  C  5  S    0.078851  -0.299541  -0.292781   0.023807  -0.412333
   37  C  5  X    0.112220   0.062316   0.062382   0.097048  -0.060580
   38  C  5  Y   -0.057397  -0.084341   0.080572  -0.084446  -0.114037
   39  C  5  Z    0.016967   0.041621  -0.113758   0.178983  -0.109237
   40  C  6  S    0.101594   0.140732  -0.022318   0.075819  -0.077234
   41  C  6  S   -0.275389  -0.406361   0.067842  -0.239344   0.248525
   42  C  6  X    0.039559  -0.045250  -0.064592  -0.139340  -0.109574
   43  C  6  Y    0.066154  -0.002993  -0.019594  -0.076991   0.032948
   44  C  6  Z   -0.008021  -0.026839  -0.048580   0.059721  -0.083638
   45  H  7  S   -0.074334  -0.000020   0.052855   0.191800  -0.000012
   46  H  8  S   -0.067589  -0.000007   0.074357   0.165187   0.000099
   47  H  9  S   -0.055419   0.098554   0.039315  -0.135684  -0.113802
   48  H 10  S   -0.051084   0.102001   0.015901  -0.075330  -0.107103
   49  H 11  S    0.020310   0.077049  -0.120510   0.087404   0.230464
   50  H 12  S    0.020216  -0.076943  -0.120713   0.087490  -0.230016
   51  H 13  S   -0.055409  -0.098520   0.039301  -0.135745   0.113957
   52  H 14  S   -0.051077  -0.101975   0.015854  -0.075376   0.107272

                     26         27         28         29         30
                   -0.8754    -0.8138    -0.7561    -0.7543    -0.6928
                     A          A          A          A          A   
    1  C  1  S   -0.019847   0.008460   0.000458   0.000003   0.020328
    2  C  1  S    0.062288  -0.027157  -0.001747  -0.000015  -0.071186
    3  C  1  X    0.070246   0.111846   0.282080   0.007374   0.338851
    4  C  1  Y   -0.000105  -0.001464   0.005323  -0.194433  -0.001328
    5  C  1  Z   -0.006260   0.302107  -0.170640  -0.005375   0.097181
    6  C  2  S    0.041090   0.005677   0.001372  -0.001750  -0.032120
    7  C  2  S   -0.140216  -0.023442  -0.003819   0.007329   0.116606
    8  C  2  X    0.056553   0.050521   0.013778  -0.262402  -0.250362
    9  C  2  Y    0.210336   0.029587   0.270137  -0.061863  -0.030153
   10  C  2  Z   -0.018663   0.268932  -0.097155   0.211387   0.019260
   11  C  3  S   -0.002004   0.000299   0.010392   0.014821   0.031888
   12  C  3  S    0.006701   0.000555  -0.045813  -0.070896  -0.128146
   13  C  3  X   -0.049913  -0.208802  -0.088016  -0.023000   0.098139
   14  C  3  Y    0.254124  -0.106866  -0.077407  -0.009811   0.296655
   15  C  3  Z   -0.237114  -0.072025   0.176485   0.254660   0.101255
   16  BR 4  S    0.006896  -0.007808  -0.007348  -0.000195  -0.000546
   17  BR 4  S   -0.022657   0.025594   0.024236   0.000645   0.001540
   18  BR 4  X   -0.019872   0.016255   0.033821   0.000989   0.014270
   19  BR 4  Y    0.000033   0.000034  -0.000820   0.030046  -0.000214
   20  BR 4  Z   -0.000251  -0.018234  -0.015447  -0.000265   0.029221
   21  BR 4  S    0.100394  -0.114282  -0.107119  -0.002848  -0.009309
   22  BR 4  X    0.059839  -0.048956  -0.101958  -0.002980  -0.043108
   23  BR 4  Y   -0.000101  -0.000104   0.002473  -0.090608   0.000646
   24  BR 4  Z    0.000787   0.054943   0.046538   0.000799  -0.088222
   25  BR 4 XX   -0.031986   0.028278   0.030306   0.000832   0.001549
   26  BR 4 YY   -0.019364   0.024272   0.023127   0.000605   0.004849
   27  BR 4 ZZ   -0.020211   0.028719   0.023447   0.000607  -0.000830
   28  BR 4 XY    0.000006   0.000015  -0.000166   0.006313  -0.000016
   29  BR 4 XZ    0.004737  -0.005923  -0.005551  -0.000121   0.003441
   30  BR 4 YZ   -0.000005  -0.000011   0.000058  -0.001665   0.000024
   31  BR 4  S   -0.230245   0.257820   0.250930   0.006673   0.005140
   32  BR 4  X   -0.171015   0.143447   0.314984   0.009251   0.153081
   33  BR 4  Y    0.000325   0.000309  -0.007972   0.291859  -0.002153
   34  BR 4  Z   -0.012839  -0.165469  -0.140885  -0.002339   0.290358
   35  C  5  S   -0.001796   0.000461   0.011194  -0.014221   0.032007
   36  C  5  S    0.005940  -0.000061  -0.049645   0.068250  -0.128654
   37  C  5  X   -0.050746  -0.208265  -0.088962   0.018446   0.097630
   38  C  5  Y   -0.251630   0.108347   0.076199  -0.003165  -0.298089
   39  C  5  Z   -0.239825  -0.070870   0.191126  -0.244602   0.099622
   40  C  6  S    0.041021   0.005624   0.001253   0.001786  -0.032103
   41  C  6  S   -0.139983  -0.023261  -0.003340  -0.007387   0.116522
   42  C  6  X    0.055348   0.049886  -0.001844   0.262274  -0.250837
   43  C  6  Y   -0.210366  -0.032212  -0.265685  -0.075915   0.031837
   44  C  6  Z   -0.020800   0.268523  -0.088293  -0.216588   0.018071
   45  H  7  S   -0.003601   0.164732  -0.200577  -0.005431  -0.056372
   46  H  8  S   -0.007752  -0.195226  -0.084500  -0.002475  -0.303035
   47  H  9  S   -0.036437  -0.195515   0.062995  -0.206794  -0.028697
   48  H 10  S   -0.179761   0.012459  -0.202984   0.170533   0.162085
   49  H 11  S   -0.207417  -0.034587   0.134905   0.158071  -0.086075
   50  H 12  S   -0.207711  -0.034602   0.143536  -0.150438  -0.085027
   51  H 13  S   -0.036166  -0.195403   0.052087   0.209660  -0.027723
   52  H 14  S   -0.179649   0.012578  -0.193558  -0.181141   0.162350

                     31         32         33         34         35
                   -0.6797    -0.6436    -0.6435    -0.6358    -0.6250
                     A          A          A          A          A   
    1  C  1  S    0.000031  -0.000782  -0.012713   0.000014  -0.017959
    2  C  1  S   -0.000117   0.002882   0.046672  -0.000064   0.069048
    3  C  1  X   -0.001694   0.007970   0.128550   0.001122   0.111901
    4  C  1  Y   -0.048658   0.054452  -0.006371   0.465476   0.001388
    5  C  1  Z   -0.000919   0.021942   0.384332   0.003346  -0.236093
    6  C  2  S   -0.010388  -0.010726   0.001278   0.016941  -0.008944
    7  C  2  S    0.040074   0.040412  -0.002006  -0.070324   0.039806
    8  C  2  X    0.129350   0.155750   0.067629   0.175168  -0.003229
    9  C  2  Y    0.135036   0.129997   0.085059  -0.402730   0.089344
   10  C  2  Z    0.325507  -0.124346  -0.148072   0.051028   0.178863
   11  C  3  S   -0.017601  -0.005484   0.013960   0.009728  -0.006945
   12  C  3  S    0.069369  -0.004664  -0.047434  -0.046010   0.039238
   13  C  3  X   -0.251789  -0.184733   0.196840  -0.054804   0.074233
   14  C  3  Y   -0.013534  -0.044065  -0.216846  -0.047321  -0.276040
   15  C  3  Z   -0.274769   0.122665  -0.008388  -0.032401  -0.142387
   16  BR 4  S   -0.000015   0.000207   0.003529   0.000002   0.002627
   17  BR 4  S    0.000050  -0.000675  -0.011492  -0.000007  -0.008555
   18  BR 4  X    0.000043  -0.000745  -0.017048   0.000012   0.003498
   19  BR 4  Y    0.010646   0.075264  -0.004452   0.018147  -0.000467
   20  BR 4  Z   -0.000131   0.002178   0.028112   0.000072   0.063387
   21  BR 4  S   -0.000220   0.003082   0.052506   0.000030   0.039093
   22  BR 4  X   -0.000131   0.002245   0.051405  -0.000035  -0.010681
   23  BR 4  Y   -0.032128  -0.227209   0.013440  -0.054782   0.001411
   24  BR 4  Z    0.000396  -0.006576  -0.084860  -0.000217  -0.191457
   25  BR 4 XX    0.000047  -0.000592  -0.010360  -0.000002  -0.008442
   26  BR 4 YY    0.000077  -0.000823  -0.014200   0.000001  -0.011651
   27  BR 4 ZZ    0.000035  -0.000765  -0.012557  -0.000020  -0.007514
   28  BR 4 XY   -0.000560   0.004173  -0.000254   0.000912  -0.000013
   29  BR 4 XZ   -0.000020   0.000012  -0.000098   0.000002  -0.000353
   30  BR 4 YZ   -0.002286  -0.003218   0.000173  -0.001102  -0.000025
   31  BR 4  S    0.000526  -0.006598  -0.112222  -0.000065  -0.083441
   32  BR 4  X    0.000389  -0.007435  -0.171068   0.000112   0.042142
   33  BR 4  Y    0.106261   0.758581  -0.044879   0.182845  -0.004810
   34  BR 4  Z   -0.001312   0.022036   0.284286   0.000712   0.652701
   35  C  5  S    0.017419   0.006997   0.013295  -0.009640  -0.007034
   36  C  5  S   -0.068692  -0.000559  -0.047906   0.045645   0.039513
   37  C  5  X    0.249901   0.206488   0.176227   0.055052   0.075811
   38  C  5  Y   -0.018235  -0.017648   0.219712  -0.048113   0.277182
   39  C  5  Z    0.274907  -0.123205   0.009584   0.032417  -0.137752
   40  C  6  S    0.010552   0.010756   0.000198  -0.016899  -0.008988
   41  C  6  S   -0.040706  -0.040182   0.002008   0.070149   0.039983
   42  C  6  X   -0.127679  -0.146452   0.084770  -0.176771  -0.004212
   43  C  6  Y    0.139633   0.118755  -0.095997  -0.401266  -0.092390
   44  C  6  Z   -0.324419   0.108212  -0.163575  -0.056073   0.176246
   45  H  7  S   -0.000119   0.018480   0.329499   0.001191  -0.237993
   46  H  8  S    0.001379  -0.016947  -0.294867  -0.000711   0.087834
   47  H  9  S   -0.247355   0.151192   0.162211  -0.015505  -0.196491
   48  H 10  S   -0.054110  -0.177630  -0.134513   0.259113  -0.010656
   49  H 11  S   -0.218460   0.124344   0.072977  -0.042190  -0.024824
   50  H 12  S    0.218307  -0.115348   0.087780   0.042447  -0.023370
   51  H 13  S    0.247487  -0.132394   0.179714   0.017118  -0.194988
   52  H 14  S    0.054379   0.160932  -0.152676  -0.259692  -0.012214

                     36         37         38         39         40
                   -0.5979    -0.0361     0.0292     0.3228     0.3564
                     A          A          A          A          A   
    1  C  1  S    0.018356   0.000049  -0.025605   0.016255   0.000172
    2  C  1  S   -0.072500  -0.000233   0.126889  -0.099121  -0.000956
    3  C  1  X   -0.252930  -0.000508   0.059453  -0.047712  -0.000173
    4  C  1  Y    0.000002  -0.155828  -0.000250   0.000651   0.477861
    5  C  1  Z    0.094108  -0.000713  -0.016039  -0.192889   0.001416
    6  C  2  S    0.002856   0.019219   0.003451   0.020797  -0.035339
    7  C  2  S   -0.013790  -0.086035  -0.010418  -0.121232   0.189736
    8  C  2  X    0.177925  -0.097588  -0.044623  -0.021221   0.013069
    9  C  2  Y   -0.058445  -0.037960  -0.012290   0.131012   0.387624
   10  C  2  Z   -0.088237  -0.076447  -0.065817  -0.305806  -0.004019
   11  C  3  S   -0.012285  -0.075963  -0.083224   0.046422  -0.051583
   12  C  3  S    0.046292   0.391355   0.412312  -0.298237   0.320119
   13  C  3  X   -0.153657   0.515658   0.479690  -0.136075   0.167381
   14  C  3  Y    0.139455  -0.131644  -0.054485   0.128210   0.774482
   15  C  3  Z   -0.024807  -0.306590  -0.243998  -0.511038  -0.100194
   16  BR 4  S   -0.001492  -0.000010   0.009632   0.000287  -0.000002
   17  BR 4  S    0.004877   0.000034  -0.033389  -0.001234   0.000007
   18  BR 4  X    0.066651   0.000063   0.060453   0.006751   0.000023
   19  BR 4  Y   -0.000426   0.053186   0.000147  -0.000078   0.008361
   20  BR 4  Z    0.043363   0.000344  -0.044563   0.004429   0.000078
   21  BR 4  S   -0.022070  -0.000142   0.138496   0.002964  -0.000023
   22  BR 4  X   -0.201367  -0.000190  -0.183039  -0.020492  -0.000070
   23  BR 4  Y    0.001289  -0.161055  -0.000446   0.000238  -0.025365
   24  BR 4  Z   -0.131136  -0.001041   0.134930  -0.013470  -0.000236
   25  BR 4 XX    0.002854  -0.000028  -0.044989  -0.005958  -0.000033
   26  BR 4 YY    0.006647  -0.000008  -0.030177  -0.000142  -0.000014
   27  BR 4 ZZ    0.006150   0.000146  -0.033000   0.002654   0.000067
   28  BR 4 XY    0.000014  -0.017539  -0.000082   0.000046  -0.007295
   29  BR 4 XZ   -0.000428  -0.000084   0.018879  -0.000165  -0.000039
   30  BR 4 YZ    0.000006   0.012042  -0.000013  -0.000036   0.005020
   31  BR 4  S    0.047717   0.000412  -0.422902  -0.024789   0.000098
   32  BR 4  X    0.689702   0.000713   0.725191   0.088442   0.000303
   33  BR 4  Y   -0.004448   0.614719   0.001744  -0.000991   0.113168
   34  BR 4  Z    0.455721   0.003967  -0.530946   0.051044   0.001020
   35  C  5  S   -0.012282   0.076207  -0.083123   0.045939   0.051101
   36  C  5  S    0.046261  -0.392568   0.411772  -0.295330  -0.317343
   37  C  5  X   -0.154744  -0.517596   0.479024  -0.135162  -0.167699
   38  C  5  Y   -0.138465  -0.132760   0.054774  -0.125330   0.775547
   39  C  5  Z   -0.026847   0.304593  -0.241538  -0.513311   0.105232
   40  C  6  S    0.002799  -0.019181   0.003390   0.020821   0.035749
   41  C  6  S   -0.013570   0.085832  -0.010125  -0.121372  -0.192088
   42  C  6  X    0.178872   0.097209  -0.044348  -0.022100  -0.016215
   43  C  6  Y    0.058286  -0.039102   0.012982  -0.128743   0.387193
   44  C  6  Z   -0.087443   0.076138  -0.065578  -0.307562   0.005200
   45  H  7  S    0.151978  -0.000053   0.019969   0.273274   0.000842
   46  H  8  S    0.107922   0.000150  -0.104102  -0.148514  -0.001483
   47  H  9  S    0.118396  -0.094575  -0.112963  -0.283026  -0.107330
   48  H 10  S   -0.051688   0.036656   0.032593   0.302696   0.326919
   49  H 11  S   -0.088048  -0.166246  -0.124849   0.692301   0.203896
   50  H 12  S   -0.088366   0.167170  -0.124886   0.692563  -0.202760
   51  H 13  S    0.118321   0.094611  -0.112506  -0.283627   0.107751
   52  H 14  S   -0.051746  -0.036345   0.032210   0.303603  -0.326797

                     41         42         43         44         45
                    0.3573     0.4357     0.4639     0.4785     0.4898
                     A          A          A          A          A   
    1  C  1  S   -0.010184  -0.018169   0.000165  -0.077417   0.000007
    2  C  1  S    0.045016   0.105330  -0.001043   0.493607  -0.000043
    3  C  1  X    0.278485   0.215625  -0.000091  -0.424879   0.000520
    4  C  1  Y    0.000654   0.003114  -0.468709   0.000270   0.335502
    5  C  1  Z    0.137551  -0.612870  -0.003338   0.031955   0.002168
    6  C  2  S   -0.042960  -0.006979  -0.024372  -0.118779   0.023745
    7  C  2  S    0.242069   0.050207   0.145663   0.736602  -0.142158
    8  C  2  X    0.638440   0.327385   0.421140   0.045417  -0.407021
    9  C  2  Y    0.089231  -0.068128  -0.112241  -0.356913   0.200950
   10  C  2  Z    0.233824  -0.368167  -0.254670  -0.088054  -0.583009
   11  C  3  S    0.089674  -0.022021   0.103423   0.034787  -0.035510
   12  C  3  S   -0.534727   0.153435  -0.644914  -0.215403   0.205695
   13  C  3  X    0.407406  -0.060578   0.075910   0.053144  -0.464748
   14  C  3  Y    0.253938  -0.079368   0.021595   0.138499  -0.313399
   15  C  3  Z    0.134307   0.345502  -0.364000  -0.017567  -0.261619
   16  BR 4  S    0.000556  -0.002042  -0.000007  -0.000707  -0.000000
   17  BR 4  S   -0.002141   0.007351   0.000025   0.002324   0.000001
   18  BR 4  X    0.001145  -0.011600  -0.000046  -0.002690  -0.000010
   19  BR 4  Y    0.000065   0.000029  -0.002059   0.000005  -0.004017
   20  BR 4  Z   -0.006452   0.002029   0.000007  -0.000784  -0.000011
   21  BR 4  S    0.007148  -0.029400  -0.000096  -0.011463  -0.000001
   22  BR 4  X   -0.003456   0.035206   0.000140   0.008178   0.000029
   23  BR 4  Y   -0.000197  -0.000088   0.006256  -0.000017   0.012195
   24  BR 4  Z    0.019583  -0.006127  -0.000021   0.002386   0.000034
   25  BR 4 XX   -0.001020   0.012398   0.000044   0.003126   0.000008
   26  BR 4 YY   -0.000608   0.006461   0.000030   0.003268   0.000021
   27  BR 4 ZZ   -0.005048   0.005729   0.000008   0.002117  -0.000027
   28  BR 4 XY   -0.000042  -0.000012   0.000641  -0.000000   0.001881
   29  BR 4 XZ    0.002707  -0.002827  -0.000017   0.000321  -0.000003
   30  BR 4 YZ    0.000041   0.000018  -0.001311   0.000005  -0.003119
   31  BR 4  S   -0.033725   0.102944   0.000375   0.024522   0.000031
   32  BR 4  X    0.016144  -0.153663  -0.000616  -0.032297  -0.000138
   33  BR 4  Y    0.000858   0.000362  -0.024868   0.000072  -0.053251
   34  BR 4  Z   -0.083442   0.031132   0.000122  -0.009965  -0.000150
   35  C  5  S    0.089953  -0.021218  -0.103655   0.034291   0.035581
   36  C  5  S   -0.536491   0.148476   0.646415  -0.212311  -0.206156
   37  C  5  X    0.404634  -0.059712  -0.077360   0.051882   0.463105
   38  C  5  Y   -0.251528   0.076956   0.018859  -0.138165  -0.318222
   39  C  5  Z    0.133072   0.344961   0.366340  -0.017447   0.258485
   40  C  6  S   -0.042630  -0.007213   0.024888  -0.118480  -0.023705
   41  C  6  S    0.240280   0.051570  -0.148810   0.734807   0.141908
   42  C  6  X    0.637697   0.330188  -0.420475   0.045159   0.407527
   43  C  6  Y   -0.091470   0.070051  -0.114095   0.357429   0.192966
   44  C  6  Z    0.232996  -0.367060   0.252149  -0.083288   0.585282
   45  H  7  S   -0.082957   0.647565   0.002083  -0.354188  -0.000712
   46  H  8  S    0.385341  -0.284684   0.000527  -0.511290   0.000184
   47  H  9  S   -0.072091  -0.463142  -0.445029  -0.399178  -0.368104
   48  H 10  S    0.156435   0.163110   0.051306  -0.601974   0.256295
   49  H 11  S    0.196422  -0.380317   0.636208   0.163325   0.042864
   50  H 12  S    0.194860  -0.377248  -0.638913   0.160507  -0.042217
   51  H 13  S   -0.071476  -0.464196   0.444773  -0.396168   0.368644
   52  H 14  S    0.154068   0.162686  -0.047289  -0.602395  -0.255776

                     46         47         48         49         50
                    0.5365     0.5536     0.5619     0.5908     0.5997
                     A          A          A          A          A   
    1  C  1  S    0.000220   0.000024  -0.225782  -0.070626   0.010989
    2  C  1  S   -0.001354  -0.000119   1.403323   0.433750  -0.063923
    3  C  1  X    0.002494   0.000945  -0.124005   0.987502   0.110373
    4  C  1  Y    0.643231   0.296633   0.000897  -0.003763   0.000688
    5  C  1  Z    0.002217   0.001077   0.068951   0.015645   0.887663
    6  C  2  S   -0.162205   0.032088   0.109678   0.059875  -0.019142
    7  C  2  S    1.005689  -0.217795  -0.678254  -0.381121   0.128631
    8  C  2  X   -0.035043  -0.015489   0.293509   0.011158  -0.011791
    9  C  2  Y    0.113587   0.525315  -0.074864  -0.680839   0.119781
   10  C  2  Z   -0.022187   0.343613  -0.048837  -0.077966  -0.567271
   11  C  3  S    0.067451   0.105003  -0.010237  -0.010911  -0.022688
   12  C  3  S   -0.422622  -0.684683   0.063554   0.069875   0.160140
   13  C  3  X    0.319748   0.170934  -0.097131  -0.148732  -0.110846
   14  C  3  Y   -0.275288  -0.489913  -0.017817   0.028291  -0.110109
   15  C  3  Z    0.274051  -0.205594   0.004811  -0.205822   0.093191
   16  BR 4  S    0.000003  -0.000004  -0.000255   0.000122  -0.001044
   17  BR 4  S   -0.000010   0.000014   0.000987  -0.000525   0.003816
   18  BR 4  X    0.000006  -0.000020  -0.000905   0.002183  -0.004979
   19  BR 4  Y   -0.002586   0.000660  -0.000014  -0.000028   0.000061
   20  BR 4  Z   -0.000020   0.000006   0.002896   0.001699   0.001707
   21  BR 4  S    0.000042  -0.000055  -0.003269   0.001300  -0.015123
   22  BR 4  X   -0.000017   0.000061   0.002735  -0.006629   0.015121
   23  BR 4  Y    0.007861  -0.002006   0.000042   0.000086  -0.000185
   24  BR 4  Z    0.000062  -0.000018  -0.008800  -0.005173  -0.005172
   25  BR 4 XX   -0.000001   0.000028   0.000938  -0.002645   0.005945
   26  BR 4 YY   -0.000024   0.000021   0.000712  -0.000150   0.003064
   27  BR 4 ZZ   -0.000010  -0.000002   0.001419   0.001298   0.003994
   28  BR 4 XY    0.003429   0.001381   0.000009   0.000017  -0.000057
   29  BR 4 XZ    0.000023  -0.000002  -0.001405   0.000132  -0.001776
   30  BR 4 YZ    0.000106  -0.001614   0.000000  -0.000012   0.000009
   31  BR 4  S   -0.000145   0.000200   0.016277  -0.011346   0.055123
   32  BR 4  X    0.000080  -0.000281  -0.013353   0.032411  -0.068711
   33  BR 4  Y   -0.035933   0.004105  -0.000175  -0.000374   0.000837
   34  BR 4  Z   -0.000282   0.000069   0.037204   0.020392   0.025609
   35  C  5  S   -0.067584  -0.105129  -0.010398  -0.010783  -0.022939
   36  C  5  S    0.423462   0.685542   0.064570   0.069087   0.161730
   37  C  5  X   -0.320510  -0.173741  -0.098018  -0.148563  -0.108086
   38  C  5  Y   -0.270781  -0.490949   0.017903  -0.025512   0.114000
   39  C  5  Z   -0.276807   0.201676   0.004417  -0.208485   0.108403
   40  C  6  S    0.162169  -0.032155   0.110024   0.059625  -0.018355
   41  C  6  S   -1.005497   0.218218  -0.680412  -0.379520   0.123506
   42  C  6  X    0.035011   0.018331   0.294084   0.011815   0.001729
   43  C  6  Y    0.113720   0.528783   0.074239   0.683469  -0.124167
   44  C  6  Z    0.023600  -0.339392  -0.048544  -0.069934  -0.575823
   45  H  7  S    0.001351   0.000364  -0.692073   0.082254  -0.614661
   46  H  8  S    0.000799   0.000024  -0.671434   0.461078   0.581690
   47  H  9  S   -0.448084   0.414919   0.183308   0.054616  -0.457620
   48  H 10  S   -0.352444   0.390193   0.368898  -0.304487   0.175497
   49  H 11  S   -0.116160   0.284107  -0.024405   0.138322  -0.135099
   50  H 12  S    0.115124  -0.285710  -0.024317   0.140163  -0.147691
   51  H 13  S    0.448380  -0.415405   0.183762   0.056193  -0.463858
   52  H 14  S    0.351668  -0.390721   0.369622  -0.308177   0.190789

                     51         52
                    0.6029   106.5502
                     A          A   
    1  C  1  S    0.000318  -0.000016
    2  C  1  S   -0.001917   0.000145
    3  C  1  X   -0.001954  -0.000036
    4  C  1  Y   -0.339720   0.000001
    5  C  1  Z    0.010592  -0.000307
    6  C  2  S    0.023042  -0.000067
    7  C  2  S   -0.151093   0.001498
    8  C  2  X    0.516412   0.000509
    9  C  2  Y    0.354516  -0.000443
   10  C  2  Z   -0.272726  -0.001506
   11  C  3  S   -0.010340   0.002813
   12  C  3  S    0.065974  -0.017206
   13  C  3  X    0.105235  -0.015726
   14  C  3  Y   -0.156770  -0.002651
   15  C  3  Z    0.547991   0.010762
   16  BR 4  S   -0.000011  -0.515341
   17  BR 4  S    0.000041   0.031885
   18  BR 4  X   -0.000067  -0.000901
   19  BR 4  Y   -0.004255  -0.000001
   20  BR 4  Z   -0.000012   0.000589
   21  BR 4  S   -0.000162  48.073096
   22  BR 4  X    0.000203   0.002833
   23  BR 4  Y    0.012918   0.000003
   24  BR 4  Z    0.000038  -0.001850
   25  BR 4 XX    0.000087 -21.515893
   26  BR 4 YY    0.000021 -21.516143
   27  BR 4 ZZ    0.000033 -21.516086
   28  BR 4 XY    0.004307   0.000001
   29  BR 4 XZ    0.000005  -0.000261
   30  BR 4 YZ   -0.000680   0.000000
   31  BR 4  S    0.000595   0.153006
   32  BR 4  X   -0.000925  -0.015289
   33  BR 4  Y   -0.059164  -0.000017
   34  BR 4  Z   -0.000141   0.010004
   35  C  5  S    0.009746   0.002812
   36  C  5  S   -0.061783  -0.017201
   37  C  5  X   -0.107064  -0.015715
   38  C  5  Y   -0.147398   0.002611
   39  C  5  Z   -0.546016   0.010792
   40  C  6  S   -0.023795  -0.000067
   41  C  6  S    0.156071   0.001503
   42  C  6  X   -0.514838   0.000510
   43  C  6  Y    0.347612   0.000456
   44  C  6  Z    0.260780  -0.001500
   45  H  7  S   -0.008745  -0.000270
   46  H  8  S    0.006706  -0.000022
   47  H  9  S   -0.242302  -0.003165
   48  H 10  S    0.553973  -0.000200
   49  H 11  S   -0.483621  -0.000743
   50  H 12  S    0.478898  -0.000752
   51  H 13  S    0.229962  -0.003176
   52  H 14  S   -0.547042  -0.000200

  ----- BETA SET ----- 

          ------------
          EIGENVECTORS
          ------------

                      1          2          3          4          5
                 -485.1987   -64.1036   -58.2345   -58.2333   -58.2320
                     A          A          A          A          A   
    1  C  1  S   -0.000000  -0.000002  -0.000000  -0.000000  -0.000000
    2  C  1  S    0.000000   0.000017   0.000003   0.000000  -0.000001
    3  C  1  X    0.000000  -0.000004  -0.000000   0.000000   0.000004
    4  C  1  Y    0.000000   0.000000   0.000000   0.000001  -0.000000
    5  C  1  Z   -0.000000  -0.000040  -0.000002   0.000000  -0.000001
    6  C  2  S   -0.000000  -0.000009  -0.000000  -0.000001  -0.000002
    7  C  2  S    0.000001   0.000199   0.000008   0.000014   0.000031
    8  C  2  X    0.000000   0.000068   0.000008   0.000007   0.000003
    9  C  2  Y   -0.000000  -0.000055  -0.000001  -0.000002  -0.000001
   10  C  2  Z   -0.000001  -0.000188  -0.000015  -0.000008   0.000004
   11  C  3  S    0.000002   0.000370   0.000034   0.000023   0.000001
   12  C  3  S   -0.000013  -0.002263  -0.000227  -0.000160  -0.000007
   13  C  3  X   -0.000011  -0.002048  -0.000205  -0.000123   0.000043
   14  C  3  Y   -0.000002  -0.000351  -0.000062  -0.000009  -0.000004
   15  C  3  Z    0.000008   0.001403   0.000136   0.000085   0.000081
   16  BR 4  S    0.994694   0.419596  -0.000853  -0.000000  -0.000007
   17  BR 4  S    0.014821  -1.059842   0.002171   0.000001   0.000017
   18  BR 4  X   -0.000007   0.001469   0.803639   0.002731   0.583070
   19  BR 4  Y   -0.000000   0.000002   0.000831   0.992876  -0.005797
   20  BR 4  Z    0.000005  -0.001057  -0.583050   0.005181   0.803660
   21  BR 4  S   -0.073405   2.443307  -0.004683  -0.000002  -0.000030
   22  BR 4  X    0.000004   0.000485   0.015111   0.000051   0.010894
   23  BR 4  Y    0.000000   0.000001   0.000016   0.018599  -0.000108
   24  BR 4  Z   -0.000003  -0.000323  -0.010961   0.000097   0.015013
   25  BR 4 XX    0.032047  -1.127661   0.002069   0.000000  -0.000072
   26  BR 4 YY    0.032047  -1.127681   0.002183   0.000001   0.000013
   27  BR 4 ZZ    0.032047  -1.127661   0.002123   0.000001   0.000097
   28  BR 4 XY    0.000000  -0.000000  -0.000000  -0.000081   0.000000
   29  BR 4 XZ   -0.000001   0.000010   0.000093  -0.000000  -0.000033
   30  BR 4 YZ    0.000000  -0.000000   0.000000   0.000058  -0.000000
   31  BR 4  S    0.000098   0.019448   0.000184   0.000000   0.000010
   32  BR 4  X   -0.000012  -0.002015  -0.001252  -0.000004  -0.000773
   33  BR 4  Y   -0.000000  -0.000002  -0.000001  -0.001360   0.000008
   34  BR 4  Z    0.000008   0.001319   0.000896  -0.000007  -0.001048
   35  C  5  S    0.000002   0.000370   0.000034  -0.000023   0.000001
   36  C  5  S   -0.000013  -0.002263  -0.000227   0.000160  -0.000007
   37  C  5  X   -0.000011  -0.002046  -0.000204   0.000123   0.000042
   38  C  5  Y    0.000002   0.000346   0.000062  -0.000009   0.000003
   39  C  5  Z    0.000008   0.001407   0.000137  -0.000085   0.000081
   40  C  6  S   -0.000000  -0.000009  -0.000000   0.000001  -0.000002
   41  C  6  S    0.000001   0.000200   0.000008  -0.000014   0.000031
   42  C  6  X    0.000000   0.000068   0.000008  -0.000007   0.000003
   43  C  6  Y    0.000000   0.000056   0.000001  -0.000002   0.000001
   44  C  6  Z   -0.000001  -0.000187  -0.000015   0.000008   0.000004
   45  H  7  S   -0.000000  -0.000035  -0.000004  -0.000000   0.000000
   46  H  8  S   -0.000000  -0.000002  -0.000001   0.000000   0.000002
   47  H  9  S   -0.000002  -0.000406  -0.000018  -0.000021  -0.000036
   48  H 10  S   -0.000000  -0.000026  -0.000001  -0.000001  -0.000005
   49  H 11  S   -0.000000  -0.000089  -0.000008   0.000000  -0.000021
   50  H 12  S   -0.000000  -0.000090  -0.000008  -0.000000  -0.000021
   51  H 13  S   -0.000002  -0.000407  -0.000018   0.000021  -0.000036
   52  H 14  S   -0.000000  -0.000026  -0.000001   0.000001  -0.000005

                      6          7          8          9         10
                  -11.3596   -11.3595   -11.2660   -11.2659   -11.2432
                     A          A          A          A          A   
    1  C  1  S   -0.000573  -0.000053  -0.000655  -0.005814   0.991915
    2  C  1  S    0.000063   0.000005  -0.000960  -0.008499   0.037407
    3  C  1  X   -0.000365  -0.000034  -0.000400  -0.003654   0.001202
    4  C  1  Y   -0.000006   0.000099   0.004756  -0.000532  -0.000003
    5  C  1  Z   -0.000350  -0.000032   0.000112   0.000799   0.000203
    6  C  2  S   -0.000984   0.000388   0.775666   0.618297   0.005082
    7  C  2  S   -0.004077   0.003596   0.029199   0.023179  -0.005847
    8  C  2  X   -0.002474   0.002011   0.000550   0.000056   0.002897
    9  C  2  Y   -0.000908   0.000617   0.000957   0.000238  -0.003273
   10  C  2  Z   -0.001558   0.001462   0.000079   0.000259  -0.000562
   11  C  3  S    0.762725  -0.634637   0.001300   0.001535   0.000536
   12  C  3  S    0.023117  -0.026926  -0.004746  -0.003491  -0.000034
   13  C  3  X   -0.000058   0.000850   0.002799   0.002178   0.000177
   14  C  3  Y   -0.000480  -0.005189   0.000946   0.000766  -0.000114
   15  C  3  Z   -0.000196  -0.000542   0.001798   0.001550  -0.000110
   16  BR 4  S    0.000042   0.000004  -0.000000   0.000000  -0.000000
   17  BR 4  S   -0.000134  -0.000012   0.000000   0.000002  -0.000000
   18  BR 4  X    0.000109   0.000010   0.000000   0.000002  -0.000002
   19  BR 4  Y    0.000008  -0.000082   0.000000  -0.000000   0.000000
   20  BR 4  Z   -0.000073  -0.000007  -0.000000  -0.000002  -0.000001
   21  BR 4  S   -0.000814  -0.000074  -0.000000  -0.000004  -0.000002
   22  BR 4  X   -0.000369  -0.000033  -0.000001  -0.000007   0.000007
   23  BR 4  Y   -0.000026   0.000278  -0.000001   0.000000  -0.000000
   24  BR 4  Z    0.000249   0.000024   0.000001   0.000007   0.000003
   25  BR 4 XX    0.000362   0.000033   0.000001   0.000011  -0.000000
   26  BR 4 YY    0.000405   0.000037   0.000001   0.000006  -0.000001
   27  BR 4 ZZ    0.000394   0.000036   0.000000   0.000004  -0.000001
   28  BR 4 XY   -0.000004   0.000037   0.000003  -0.000000  -0.000000
   29  BR 4 XZ    0.000042   0.000004  -0.000000  -0.000002   0.000000
   30  BR 4 YZ    0.000002  -0.000024  -0.000000   0.000000  -0.000000
   31  BR 4  S   -0.004230  -0.000386   0.000012   0.000109  -0.000013
   32  BR 4  X    0.003603   0.000323  -0.000011  -0.000097  -0.000027
   33  BR 4  Y    0.000239  -0.002566  -0.000065   0.000008   0.000000
   34  BR 4  Z   -0.002408  -0.000233  -0.000006  -0.000045  -0.000029
   35  C  5  S    0.635176   0.762276  -0.000924   0.001786   0.000537
   36  C  5  S    0.017859   0.030668   0.003848  -0.004462  -0.000035
   37  C  5  X    0.000099  -0.000873  -0.002238   0.002742   0.000179
   38  C  5  Y    0.001412  -0.005020   0.000776  -0.000989   0.000115
   39  C  5  Z   -0.000278   0.000446  -0.001402   0.001905  -0.000109
   40  C  6  S   -0.000896  -0.000559  -0.618189   0.775752   0.005085
   41  C  6  S   -0.003359  -0.004275  -0.023293   0.029109  -0.005847
   42  C  6  X   -0.002065  -0.002421  -0.000519   0.000175   0.002914
   43  C  6  Y    0.000804   0.000799   0.000883  -0.000449   0.003263
   44  C  6  Z   -0.001262  -0.001714  -0.000012   0.000267  -0.000533
   45  H  7  S   -0.000096  -0.000009   0.000008   0.000068  -0.006730
   46  H  8  S   -0.000224  -0.000021   0.000023   0.000208  -0.006585
   47  H  9  S    0.000029   0.000060  -0.005295  -0.004153  -0.000013
   48  H 10  S   -0.000006  -0.000105  -0.005025  -0.004261   0.000089
   49  H 11  S   -0.004843   0.004251   0.000084  -0.000018   0.000068
   50  H 12  S   -0.003994  -0.005057  -0.000085   0.000002   0.000069
   51  H 13  S    0.000041  -0.000053   0.004235  -0.005230  -0.000013
   52  H 14  S   -0.000025   0.000102   0.003948  -0.005275   0.000089

                     11         12         13         14         15
                   -9.5822    -7.2749    -7.2672    -7.2604    -2.6625
                     A          A          A          A          A   
    1  C  1  S   -0.000007   0.000013   0.000000   0.000019  -0.000010
    2  C  1  S    0.000030  -0.000085  -0.000000  -0.000015  -0.000013
    3  C  1  X    0.000017  -0.000040  -0.000000  -0.000122   0.000015
    4  C  1  Y    0.000000  -0.000000  -0.000029   0.000000  -0.000000
    5  C  1  Z   -0.000052   0.000060  -0.000000   0.000023   0.000066
    6  C  2  S    0.000006  -0.000022   0.000010   0.000019  -0.000035
    7  C  2  S    0.000224  -0.000197  -0.000340  -0.000699   0.000255
    8  C  2  X    0.000032  -0.000108  -0.000100   0.000014   0.000527
    9  C  2  Y   -0.000085   0.000076   0.000060   0.000081   0.000579
   10  C  2  Z   -0.000200   0.000278   0.000149  -0.000127  -0.000593
   11  C  3  S    0.000610  -0.000959  -0.000649  -0.000018   0.002980
   12  C  3  S   -0.003146   0.006633   0.004312   0.000123  -0.009267
   13  C  3  X   -0.002655   0.005422   0.003192  -0.001196  -0.008131
   14  C  3  Y   -0.000495   0.001657   0.000035   0.000080  -0.006263
   15  C  3  Z    0.001809  -0.003598  -0.002179  -0.002106   0.005522
   16  BR 4  S    0.170423   0.002584   0.000001   0.000030   0.000106
   17  BR 4  S   -0.524628  -0.007998  -0.000002  -0.000094  -0.000278
   18  BR 4  X    0.004760  -0.340285  -0.001094  -0.242143   0.001706
   19  BR 4  Y    0.000006  -0.000385  -0.417884   0.002432   0.000002
   20  BR 4  Z   -0.003321   0.241855  -0.002205  -0.340734  -0.001237
   21  BR 4  S    2.305697   0.033840   0.000008   0.000365   0.002168
   22  BR 4  X   -0.011910   0.868061   0.002792   0.617970  -0.004403
   23  BR 4  Y   -0.000016   0.000982   1.066308  -0.006207  -0.000004
   24  BR 4  Z    0.008314  -0.616975   0.005627   0.869591   0.003200
   25  BR 4 XX   -0.550702  -0.011142  -0.000022  -0.004570  -0.551150
   26  BR 4 YY   -0.551309  -0.004472  -0.000012  -0.000052   0.701564
   27  BR 4 ZZ   -0.551730  -0.007740   0.000029   0.004387  -0.151979
   28  BR 4 XY    0.000007  -0.000010  -0.004652   0.000023   0.000251
[...]
    5            -0.000000   0.000022   0.000000   0.000000   0.000000
    6             0.000000  -0.000000  -0.000000  -0.000000   0.000000
    7            -0.000000   0.000000   0.000000  -0.000000   0.000000
    8            -0.000000   0.000000   0.000000   0.000000   0.000000
    9            -0.000000   0.000000   0.000000   0.000000   0.000000
   10            -0.000000   0.000000   0.000000   0.000000   0.000000
   11             0.000000   0.000000  -0.000000  -0.000000   0.000000
   12             0.000000   0.000000  -0.000000  -0.000000  -0.000000
   13            -0.000000   0.000000   0.000000   0.000000   0.000000
   14            -0.000000   0.000000   0.000000   0.000000   0.000000

                      6          7          8          9         10

                  1.000000   1.000000   1.000000   1.000000   1.000000

    1            -0.000000  -0.000000  -0.000332  -0.000309   1.001670
    2            -0.000371   0.000000   1.001259   0.000582  -0.000345
    3             1.001309  -0.000368  -0.000423  -0.000000  -0.000000
    4            -0.000109  -0.000108  -0.000000  -0.000000  -0.000000
    5            -0.000367   1.001281   0.000000  -0.000401  -0.000000
    6            -0.000000  -0.000354   0.000578   1.001196  -0.000315
    7            -0.000000  -0.000000   0.000001   0.000001  -0.000560
    8             0.000000   0.000000   0.000001   0.000001  -0.000452
    9            -0.000000  -0.000000  -0.000524  -0.000000   0.000001
   10            -0.000001  -0.000000  -0.000559  -0.000000   0.000001
   11            -0.000461   0.000000   0.000000  -0.000000  -0.000000
   12             0.000000  -0.000451  -0.000000   0.000000  -0.000000
   13            -0.000000  -0.000000  -0.000000  -0.000518   0.000000
   14            -0.000000  -0.000000  -0.000000  -0.000552   0.000000

                     11         12         13         14         15

                  1.000000   1.000000   1.000000   1.000000   1.000000

    1            -0.000000  -0.000000   0.000000  -0.000000  -0.000000
    2            -0.000000  -0.000000   0.000000  -0.000000  -0.000002
    3            -0.000147  -0.000226  -0.000060  -0.000009   0.000283
    4             1.000297   1.000459   1.000119   1.000021   0.999419
    5            -0.000149  -0.000233  -0.000058  -0.000010   0.000305
    6            -0.000000   0.000000   0.000000  -0.000000  -0.000002
    7            -0.000000  -0.000000   0.000000  -0.000000  -0.000000
    8            -0.000000  -0.000000  -0.000000  -0.000000  -0.000000
    9            -0.000000  -0.000000  -0.000000  -0.000000  -0.000000
   10            -0.000000  -0.000000  -0.000000  -0.000000   0.000000
   11            -0.000000   0.000000  -0.000000  -0.000000  -0.000002
   12            -0.000000   0.000000  -0.000000  -0.000000  -0.000001
   13            -0.000000  -0.000000  -0.000000  -0.000000  -0.000000
   14            -0.000000  -0.000000  -0.000000  -0.000000   0.000000

                     16         17         18         19         20

                  1.000000   1.000000   1.000000   1.000000   1.000000

    1             0.000000   0.000000  -0.000000   0.000000   0.040247
    2            -0.000002  -0.000001  -0.000000  -0.000000   0.081334
    3             0.000229   0.000034   0.000006   0.000042   0.290529
    4             0.999560   0.999935   0.999987   0.999921   0.177498
    5             0.000218   0.000035   0.000006   0.000040   0.282410
    6            -0.000002  -0.000001  -0.000000  -0.000000   0.074141
    7            -0.000000   0.000000   0.000000  -0.000000   0.001802
    8            -0.000000   0.000000  -0.000000   0.000000   0.002083
    9             0.000000   0.000000   0.000000   0.000000   0.004453
   10             0.000000   0.000000   0.000000  -0.000000   0.004765
   11            -0.000002  -0.000001   0.000000  -0.000001   0.016891
   12            -0.000002  -0.000001   0.000000  -0.000001   0.015658
   13             0.000000   0.000000   0.000000   0.000000   0.004021
   14             0.000000   0.000000   0.000000  -0.000000   0.004168

                     21         22         23         24         25

                  1.000000   1.000000   1.000000   1.000000   1.000000

    1             0.255648   0.033861   0.108743   0.215537   0.043095
    2             0.167217   0.223961   0.029674   0.135066   0.086444
    3             0.063404   0.143434   0.121482   0.105309   0.196648
    4             0.185332   0.007064   0.502007   0.064860   0.028886
    5             0.062456   0.147616   0.116314   0.085596   0.216479
    6             0.135903   0.254961   0.027197   0.116522   0.112512
    7             0.030281   0.000090   0.023440   0.071075   0.000394
    8             0.024014   0.000088   0.024316   0.054253   0.000306
    9             0.016511   0.035338   0.000498   0.038246   0.019548
   10             0.020805   0.036309   0.000880   0.034650   0.016957
   11             0.004445   0.018882   0.023333   0.018988   0.103279
   12             0.005188   0.018558   0.021010   0.004520   0.115781
   13             0.012500   0.039821   0.000225   0.029918   0.030288
   14             0.016297   0.040014   0.000882   0.025462   0.029381

                     26         27         28         29         30

                  1.000000   1.000000   1.000000   1.000000   1.000000

    1             0.043755   0.190539   0.007421   0.048790   0.031433
    2             0.083719   0.189496   0.222043   0.146111   0.173877
    3             0.236656   0.031817   0.051204   0.175749   0.195882
    4             0.037462   0.046948   0.053052   0.140874   0.002713
    5             0.232632   0.027588   0.040697   0.183689   0.186868
    6             0.074893   0.169334   0.251418   0.098033   0.186214
    7             0.019239   0.035803   0.000374   0.013947   0.001545
    8             0.001683   0.080829   0.000563   0.004612   0.000202
    9             0.014346   0.065614   0.073721   0.027117   0.040379
   10             0.025876   0.051405   0.097752   0.043216   0.000928
   11             0.096942   0.003494   0.012722   0.019239   0.070569
   12             0.096999   0.002552   0.002895   0.043555   0.059187
   13             0.012583   0.058647   0.043148   0.049896   0.048017
   14             0.023216   0.045934   0.142990   0.005171   0.002185

                     31         32         33         34         35

                  1.000000   1.000000   1.000000   1.000000   1.000000

    1             0.314515   0.288124   0.325277   0.082668   0.010521
    2             0.090951   0.094363   0.213179   0.051667   0.054437
    3             0.094967   0.097228   0.008129   0.072542   0.094856
    4             0.074550   0.118968   0.016697   0.302201   0.691695
    5             0.123443   0.100563   0.006837   0.129047   0.038904
    6             0.090291   0.038789   0.301470   0.088998   0.019589
    7             0.198348   0.004925   0.000278   0.035787   0.003175
    8            -0.000003   0.193824   0.003051   0.057648   0.004306
    9             0.000253   0.000115   0.051340   0.042619   0.009481
   10             0.002866   0.025895   0.004769   0.024797   0.042790
   11             0.000900   0.008234   0.000471   0.001194   0.011073
   12             0.003476   0.006131   0.002531   0.001482   0.009869
   13             0.001869   0.004490   0.056970   0.048737   0.000402
   14             0.003573   0.018350   0.009002   0.060613   0.008903

                     36

                  1.000000

    1             0.010681
    2             0.016451
    3             0.013273
    4             0.905937
    5             0.014124
    6             0.017212
    7             0.003113
    8             0.001394
    9             0.000033
   10             0.003430
   11             0.005263
   12             0.006922
   13            -0.000001
   14             0.002168

     ATOMIC SPIN POPULATION (ALPHA MINUS BETA)
       ATOM         MULL.POP.                    LOW.POP.
    1 C             0.000000                     0.000000
    2 C             0.000000                     0.000000
    3 C             0.000000                     0.000000
    4 BR            0.000000                     0.000000
    5 C             0.000000                     0.000000
    6 C             0.000000                     0.000000
    7 H             0.000000                     0.000000
    8 H             0.000000                     0.000000
    9 H             0.000000                     0.000000
   10 H             0.000000                     0.000000
   11 H             0.000000                     0.000000
   12 H             0.000000                     0.000000
   13 H             0.000000                     0.000000
   14 H             0.000000                     0.000000


          ********* ALL ELECTRONS ********

               ----- POPULATIONS IN EACH AO -----
                             MULLIKEN      LOWDIN
              1  C  1  S      1.99210     1.98519
              2  C  1  S      1.18404     1.02960
              3  C  1  X      1.02169     1.04594
              4  C  1  Y      0.88047     0.92823
              5  C  1  Z      1.02546     1.04569
              6  C  2  S      1.99202     1.98540
              7  C  2  S      1.18119     1.02106
              8  C  2  X      0.87310     0.92656
              9  C  2  Y      1.02191     1.04608
             10  C  2  Z      1.05400     1.07000
             11  C  3  S      1.99322     1.98659
             12  C  3  S      1.26645     1.12901
             13  C  3  X      0.93521     0.95145
             14  C  3  Y      0.98230     1.01902
             15  C  3  Z      0.81043     0.83100
             16  BR 4  S      2.00078     1.99917
             17  BR 4  S      1.99667     1.99261
             18  BR 4  X      1.99991     1.99947
             19  BR 4  Y      1.99991     1.99944
             20  BR 4  Z      1.99986     1.99916
             21  BR 4  S      1.96894     0.79702
             22  BR 4  X      1.99484     1.99069
             23  BR 4  Y      1.99482     1.99020
             24  BR 4  Z      1.99183     1.98528
             25  BR 4 XX      1.34432     1.73685
             26  BR 4 YY      1.34434     1.73675
             27  BR 4 ZZ      1.34418     1.73691
             28  BR 4 XY      1.99976     1.99976
             29  BR 4 XZ      1.99953     1.99955
             30  BR 4 YZ      1.99961     1.99962
             31  BR 4  S      1.95445     1.91966
             32  BR 4  X      1.66587     1.67030
             33  BR 4  Y      1.64090     1.64395
             34  BR 4  Z      1.47187     1.47906
             35  C  5  S      1.99321     1.98647
             36  C  5  S      1.26690     1.13103
             37  C  5  X      0.94420     0.96062
             38  C  5  Y      0.97767     1.01432
             39  C  5  Z      0.80993     0.83123
             40  C  6  S      1.99208     1.98536
             41  C  6  S      1.18606     1.02782
             42  C  6  X      0.86875     0.92052
             43  C  6  Y      1.01736     1.04175
             44  C  6  Z      1.05290     1.06966
             45  H  7  S      0.88611     0.93228
             46  H  8  S      0.90544     0.94447
             47  H  9  S      0.87817     0.92411
             48  H 10  S      0.87506     0.92169
             49  H 11  S      0.83090     0.89162
             50  H 12  S      0.83172     0.89156
             51  H 13  S      0.88202     0.92706
             52  H 14  S      0.87551     0.92217

          ----- MULLIKEN ATOMIC OVERLAP POPULATIONS -----
          (OFF-DIAGONAL ELEMENTS NEED TO BE MULTIPLIED BY 2)

             1           2           3           4           5

    1    4.7403681
    2    0.3601762   4.7551518
    3   -0.0321617   0.3637954   4.8655200
    4    0.0005379  -0.0132756   0.1260887  34.5085533
    5   -0.0315612  -0.0360505   0.3736148   0.1315822   4.8690621
    6    0.3571546  -0.0297839  -0.0361704  -0.0118114   0.3597918
    7    0.3947292  -0.0203838   0.0013782  -0.0000235   0.0012942
    8    0.3841952  -0.0207656   0.0005150   0.0000468   0.0005459
    9   -0.0185355   0.3873493  -0.0204706  -0.0026911   0.0015128
   10   -0.0175150   0.3865750  -0.0236982   0.0008078   0.0002181
   11    0.0009433  -0.0133993   0.3847303  -0.0130100  -0.0186792
   12    0.0009152   0.0009370  -0.0172133  -0.0126987   0.3830982
   13   -0.0176067   0.0011961   0.0015550  -0.0023888  -0.0214438
   14   -0.0178672   0.0007003   0.0001178   0.0006889  -0.0210744

             6           7           8           9          10

    6    4.7558891
    7   -0.0195771   0.5575878
    8   -0.0205673  -0.0206544   0.5889837
    9    0.0012233   0.0009974  -0.0050136   0.5547691
   10    0.0007108  -0.0051704   0.0015184  -0.0209252   0.5544518
   11    0.0009704  -0.0000224  -0.0000208   0.0000201  -0.0019066
   12   -0.0139703  -0.0000211  -0.0000201  -0.0000170  -0.0000360
   13    0.3862672   0.0009480  -0.0048159  -0.0000195  -0.0000293
   14    0.3870252  -0.0049705   0.0014911  -0.0000300   0.0000596

            11          12          13          14

   11    0.4930253
   12   -0.0016953   0.4941280
   13   -0.0000183   0.0000105   0.5592553
   14   -0.0000345  -0.0016994  -0.0208905   0.5519979

          TOTAL MULLIKEN AND LOWDIN ATOMIC POPULATIONS
       ATOM         MULL.POP.    CHARGE          LOW.POP.     CHARGE
    1 C             6.103772   -0.103772         6.034653   -0.034653
    2 C             6.122222   -0.122222         6.049092   -0.049092
    3 C             5.987601    0.012399         5.917068    0.082932
    4 BR           34.712406    0.287594        34.675442    0.324558
    5 C             5.991911    0.008089         5.923670    0.076330
    6 C             6.117152   -0.117152         6.045107   -0.045107
    7 H             0.886112    0.113888         0.932278    0.067722
    8 H             0.905439    0.094561         0.944473    0.055527
    9 H             0.878170    0.121830         0.924110    0.075890
   10 H             0.875061    0.124939         0.921693    0.078307
   11 H             0.830903    0.169097         0.891615    0.108385
   12 H             0.831718    0.168282         0.891565    0.108435
   13 H             0.882019    0.117981         0.927063    0.072937
   14 H             0.875514    0.124486         0.922171    0.077829

          -------------------------------
          BOND ORDER AND VALENCE ANALYSIS     BOND ORDER THRESHOLD=0.050
          -------------------------------

                   BOND                       BOND                       BOND
  ATOM PAIR DIST  ORDER      ATOM PAIR DIST  ORDER      ATOM PAIR DIST  ORDER
    1   2  1.548  0.984        1   6  1.551  0.982        1   7  1.092  0.971
    1   8  1.080  0.973        2   3  1.530  0.982        2   9  1.080  0.961
    2  10  1.078  0.954        3   4  2.020  0.758        3   5  1.481  1.055
    3  11  1.091  0.942        4   5  2.021  0.767        5   6  1.535  0.977
    5  12  1.095  0.941        6  13  1.077  0.963        6  14  1.085  0.956

                       TOTAL       BONDED        FREE
      ATOM            VALENCE     VALENCE     VALENCE
    1 C                 3.944       3.944      -0.000
    2 C                 3.926       3.926       0.000
    3 C                 3.782       3.782      -0.000
    4 BR                1.604       1.604      -0.000
    5 C                 3.787       3.787      -0.000
    6 C                 3.925       3.925      -0.000
    7 H                 0.987       0.987      -0.000
    8 H                 0.991       0.991       0.000
    9 H                 0.985       0.985      -0.000
   10 H                 0.984       0.984      -0.000
   11 H                 0.971       0.971      -0.000
   12 H                 0.972       0.972      -0.000
   13 H                 0.986       0.986       0.000
   14 H                 0.985       0.985       0.000

          -----------------------------------------
          ATOMIC SPIN DENSITY AT THE NUCLEUS (A.U.)
          -----------------------------------------
                            SPIN DENS    ALPHA DENS     BETA DENS
    1  C            6.0     0.0000000      38.62321      38.62321
    2  C            6.0     0.0000000      38.63285      38.63285
    3  C            6.0     0.0000000      38.75516      38.75516
    4  BR          35.0     0.0000000    9614.37325    9614.37325
    5  C            6.0     0.0000000      38.74863      38.74863
    6  C            6.0     0.0000000      38.63243      38.63243
    7  H            1.0     0.0000000       0.17333       0.17333
    8  H            1.0     0.0000000       0.18281       0.18281
    9  H            1.0     0.0000000       0.17510       0.17510
   10  H            1.0     0.0000000       0.17482       0.17482
   11  H            1.0     0.0000000       0.16110       0.16110
   12  H            1.0     0.0000000       0.16075       0.16075
   13  H            1.0     0.0000000       0.17669       0.17669
   14  H            1.0     0.0000000       0.17307       0.17307

          ---------------------
          ELECTROSTATIC MOMENTS
          ---------------------

 POINT   1           X           Y           Z (BOHR)    CHARGE
                 1.110605   -0.024642   -0.776950        1.00 (A.U.)
         DX          DY          DZ         /D/  (DEBYE)
    -2.043772   -0.043682    3.332429    3.909475
 ...... END OF PROPERTY EVALUATION ......
 STEP CPU TIME =     0.03 TOTAL CPU TIME =         19.4 (      0.3 MIN)
 TOTAL WALL CLOCK TIME=         19.8 SECONDS, CPU UTILIZATION IS    98.18%
  $VIB   
          IVIB=   0 IATOM=   0 ICOORD=   0 E=    -2737.4708604742
 -4.502322269E-02-8.857041527E-03 2.163234312E-02-9.868264384E-03-6.329072113E-03
  1.225051654E-02-6.612090368E-03-2.744794898E-02 6.849474336E-03 5.621895285E-04
 -2.396510865E-03 4.033829777E-04 8.314121902E-03 1.928572846E-02 1.052967228E-03
 -1.378175852E-02 1.432693916E-02 2.146805308E-02 3.538746747E-02-3.143940625E-04
 -7.947481721E-03 2.350727836E-03 1.058786341E-03-1.873774332E-02-4.218215284E-03
  1.414859005E-02 1.335837365E-02 2.061319339E-02 1.176371544E-02-2.856430059E-02
 -7.216222915E-04 9.702362118E-03-4.179568302E-03-9.055745264E-04-2.930493144E-03
 -8.663787416E-04-4.621956715E-04-1.181290146E-02 1.182817484E-02 1.436524360E-02
 -1.019775940E-02-2.854781357E-02
 -2.043771776E+00-4.368157543E-02 3.332428910E+00
 ......END OF GEOMETRY SEARCH......
 STEP CPU TIME =     0.00 TOTAL CPU TIME =         19.4 (      0.3 MIN)
 TOTAL WALL CLOCK TIME=         19.8 SECONDS, CPU UTILIZATION IS    98.13%
               998625  WORDS OF DYNAMIC MEMORY USED
 EXECUTION OF GAMESS TERMINATED NORMALLY Mon Nov 15 03:52:47 2021
 DDI: 263640 bytes (0.3 MB / 0 MWords) used by master data server.

 ----------------------------------------
 CPU timing information for all processes
 ========================================
 0: 18.147 + 1.278 = 19.426
 ----------------------------------------
 ddikick.x: exited gracefully.
----- accounting info -----
Files used on the master node chemcompute-node-0.novalocal were:
-rw-r--r--. 1 chemcomp chemcomp      891 Nov 15 03:52 /scratch/306647/342661.F05
-rw-rw-r--. 1 chemcomp chemcomp  9540848 Nov 15 03:52 /scratch/306647/342661.F08
-rw-rw-r--. 1 chemcomp chemcomp 75366400 Nov 15 03:52 /scratch/306647/342661.F10
Mon Nov 15 03:52:50 UTC 2021
0.115u 0.088s 0:23.41 0.8%	0+0k 8+216io 0pf+0w
Finishing Up...
Looking for IR data...
Exception parsing IR in output file
could not convert string to float: 'PROPERTY'
Looking for Raman data...
Exception parsing Raman in output file
could not convert string to float: 'PROPERTY'
Looking for thermodynamics data...
Looking for UV-Vis data...
Exception parsing uvvis in output file
could not convert string to float: 'PROPERTY'
306647
