----- GAMESS execution script 'rungms' -----
This job is running on host chemcompute-node-0.novalocal
under operating system Linux at Mon Nov 15 02:44:22 UTC 2021
SLURM has assigned the following compute nodes to this run:
chemcompute-node-0
Available scratch disk space (Kbyte units) at beginning of the job is
Filesystem     1K-blocks     Used Available Use% Mounted on
/dev/sda1       62903276 17604384  45298892  28% /
GAMESS temporary binary files will be written to /scratch/306620
GAMESS supplementary output files will be written to /data/slurm/342634
Copying input file 342634.inp to your run's scratch directory...
The generated host list is
chemcompute-node-0.novalocal

 Distributed Data Interface kickoff program.
 Initiating 1 compute processes on 1 nodes to run the following command:
 /data/gamess-2019R1-ddi/gamess.00.x 342634 

          ******************************************************
          *         GAMESS VERSION = 30 JUN 2019 (R1)          *
          *             FROM IOWA STATE UNIVERSITY             *
          * M.W.SCHMIDT, K.K.BALDRIDGE, J.A.BOATZ, S.T.ELBERT, *
          *   M.S.GORDON, J.H.JENSEN, S.KOSEKI, N.MATSUNAGA,   *
          *          K.A.NGUYEN, S.J.SU, T.L.WINDUS,           *
          *       TOGETHER WITH M.DUPUIS, J.A.MONTGOMERY       *
          *         J.COMPUT.CHEM.  14, 1347-1363(1993)        *
          **************** 64 BIT LINUX VERSION ****************

  SINCE 1993, STUDENTS AND POSTDOCS WORKING AT IOWA STATE UNIVERSITY
  AND ALSO IN THEIR VARIOUS JOBS AFTER LEAVING ISU HAVE MADE IMPORTANT
  CONTRIBUTIONS TO THE CODE:
     IVANA ADAMOVIC, CHRISTINE AIKENS, YURI ALEXEEV, POOJA ARORA,
     ANDREY ASADCHEV, ROB BELL, PRADIPTA BANDYOPADHYAY, JONATHAN BENTZ,
     COLLEEN BERTONI, BRETT BODE, KURT BRORSEN, CALEB CARLIN, GALINA CHABAN,
     WEI CHEN, CHEOL HO CHOI, PAUL DAY, ALBERT DEFUSCO, NUWAN DESILVA,
     TIM DUDLEY, DMITRI FEDOROV, ALEX FINDLATER, GRAHAM FLETCHER, 
     MARK FREITAG, KURT GLAESEMANN, ANASTASIA GUNINA,
     DAN KEMP, GRANT MERRILL, NORIYUKI MINEZAWA, JONATHAN MULLIN,
     TAKESHI NAGATA, SEAN NEDD, HEATHER NETZLOFF, BOSILJKA NJEGIC, RYAN OLSON,
     MIKE PAK, BUU PHAM,
     SPENCER PRUITT, LUKE ROSKOP, JIM SHOEMAKER, LYUDMILA SLIPCHENKO,
     TONY SMITH, SAROM SOK LEANG, JIE SONG, TETSUYA TAKETSUGU, SIMON WEBB,
     PENG XU, SOOHAENG YOO, FEDERICO ZAHARIEV

  ADDITIONAL CODE HAS BEEN PROVIDED BY COLLABORATORS IN OTHER GROUPS:
     IOWA STATE UNIVERSITY:
          JOE IVANIC, AARON WEST, LAIMUTIS BYTAUTAS, KLAUS RUEDENBERG
     UNIVERSITY OF TOKYO: KIMIHIKO HIRAO, TAKAHITO NAKAJIMA,
          TAKAO TSUNEDA, MUNEAKI KAMIYA, SUSUMU YANAGISAWA,
          KIYOSHI YAGI, MAHITO CHIBA, SEIKEN TOKURA, NAOAKI KAWAKAMI
     UNIVERSITY OF AARHUS: FRANK JENSEN
     UNIVERSITY OF IOWA: VISVALDAS KAIRYS, HUI LI
     NATIONAL INST. OF STANDARDS AND TECHNOLOGY: WALT STEVENS, DAVID GARMER
     UNIVERSITY OF PISA: BENEDETTA MENNUCCI, JACOPO TOMASI
     UNIVERSITY OF MEMPHIS: HENRY KURTZ, PRAKASHAN KORAMBATH
     UNIVERSITY OF ALBERTA: TOBY ZENG, MARIUSZ KLOBUKOWSKI
     UNIVERSITY OF NEW ENGLAND: MARK SPACKMAN
     MIE UNIVERSITY: HIROAKI UMEDA
     NAT. INST. OF ADVANCED INDUSTRIAL SCIENCE AND TECHNOLOGY: KAZUO KITAURA
     MICHIGAN STATE UNIVERSITY:
          KAROL KOWALSKI, MARTA WLOCH, JEFFREY GOUR, JESSE LUTZ,
          WEI LI, JUN SHEN, J. EMILIANO DEUSTUA, PIOTR PIECUCH
     UNIVERSITY OF MINNESOTA:
          YINAN SHU
     UNIVERSITY OF SILESIA: MONIKA MUSIAL, STANISLAW KUCHARSKI
     FACULTES UNIVERSITAIRES NOTRE-DAME DE LA PAIX:
          OLIVIER QUINET, BENOIT CHAMPAGNE
     UNIVERSITY OF CALIFORNIA - SANTA BARBARA: BERNARD KIRTMAN
     INSTITUTE FOR MOLECULAR SCIENCE:
          KAZUYA ISHIMURA, MICHIO KATOUDA, AND SHIGERU NAGASE
     UNIVERSITY OF NOTRE DAME: ANNA POMOGAEVA, DAN CHIPMAN
     KYUSHU UNIVERSITY:
          HARUYUKI NAKANO,
          FENG LONG GU, JACEK KORCHOWIEC, MARCIN MAKOWSKI, AND YURIKO AOKI,
          HIROTOSHI MORI AND EISAKU MIYOSHI
     PENNSYLVANIA STATE UNIVERSITY:
          TZVETELIN IORDANOV, CHET SWALINA, JONATHAN SKONE,
          SHARON HAMMES-SCHIFFER
     WASEDA UNIVERSITY:
          MASATO KOBAYASHI, TOMOKO AKAMA, TSUGUKI TOUMA,
          TAKESHI YOSHIKAWA, YASUHIRO IKABATA, JUNJI SEINO,
          YUYA NAKAJIMA, HIROMI NAKAI
     NANJING UNIVERSITY: SHUHUA LI
     UNIVERSITY OF NEBRASKA:
          PEIFENG SU, DEJUN SI, NANDUN THELLAMUREGE, YALI WANG, HUI LI
     UNIVERSITY OF ZURICH: ROBERTO PEVERATI, KIM BALDRIDGE
     N. COPERNICUS UNIVERSITY AND JACKSON STATE UNIVERSITY:
          MARIA BARYSZ
     UNIVERSITY OF COPENHAGEN: Jimmy Kromann, CASPER STEINMANN
     TOKYO INSTITUTE OF TECHNOLOGY: HIROYA NAKATA
     NAGOYA UNIVERSITY: YOSHIO NISHIMOTO, STEPHAN IRLE
     MOSCOW STATE UNIVERSITY: VLADIMIR MIRONOV
     A.N.NESMEYANOV INSTITUTE OF ORGANOELEMENT COMPOUNDS OF RUSSIAN ACADEMY OF SCIENCES:
          IGOR S. GERASIMOV

 EXECUTION OF GAMESS BEGUN Mon Nov 15 02:44:23 2021

            ECHO OF THE FIRST FEW INPUT CARDS -
 INPUT CARD>!File created by the GAMESS Input Deck Generator Plugin for Avogadro            
 INPUT CARD> $BASIS GBASIS=STO NGAUSS=3 $END                                                
 INPUT CARD> $CONTRL SCFTYP=RHF RUNTYP=SADPOINT $END                                        
 INPUT CARD> $STATPT  HESS=calc ihrep=5 $END                                                
 INPUT CARD> $FORCE NVIB=2 $END                                                             
 INPUT CARD> $STATPT OPTTOL=0.0005 NSTEP=50 hssend=.t. $END                                 
 INPUT CARD> $ZMAT DLC=.T. AUTO=.T. NONVDW(1)=1,6,3,4,4,5,5,6,1,2,2,3 $END                  
 INPUT CARD>!$ZMAT IFZMAT(1)=1,1,6,1,3,4 fvalue(1)=2.00,2.00 $END                           
 INPUT CARD>                                                                                
 INPUT CARD> $DATA                                                                          
 INPUT CARD>Title                                                                           
 INPUT CARD>C1                                                                              
 INPUT CARD>C     6.0     2.82284307    -1.81995618     0.64457595                          
 INPUT CARD>C     6.0     2.22007203    -0.59155154     0.94013053                          
 INPUT CARD>C     6.0     2.93417621     0.59554571     0.73991412                          
 INPUT CARD>C     6.0     4.53899336     0.48325309     1.92817008                          
 INPUT CARD>C     6.0     4.43667650    -0.75979763     2.56447124                          
 INPUT CARD>C     6.0     4.49131727    -1.89658916     1.74472177                          
 INPUT CARD>C     6.0     5.51906586    -1.84482324     0.64377880                          
 INPUT CARD>C     6.0     6.04567289    -0.70737684     0.23728539                          
 INPUT CARD>C     6.0     5.62307644     0.60874611     0.84853858                          
 INPUT CARD>O     8.0     6.09738827     1.68535078     0.51136136                          
 INPUT CARD>H     1.0     2.28983331    -2.72313285     0.92309272                          
 INPUT CARD>H     1.0     3.33408189    -1.91300023    -0.30580565                          
 INPUT CARD>H     1.0     1.46242750    -0.58634263     1.71521056                          
 INPUT CARD>H     1.0     3.47976446     0.69932479    -0.19051139                          
 INPUT CARD>H     1.0     2.47708106     1.52534330     1.06118119                          
 INPUT CARD>H     1.0     4.43823481     1.37618053     2.53836966                          
 INPUT CARD>H     1.0     3.92767715    -0.82332253     3.51848817                          
 INPUT CARD>H     1.0     4.38719177    -2.86887956     2.21648145                          
 INPUT CARD>H     1.0     5.81065559    -2.78984427     0.19858150                          
 INPUT CARD>H     1.0     6.80658722    -0.66623515    -0.53096575                          
 INPUT CARD> $END                                                                           
    1000000 WORDS OF MEMORY AVAILABLE

     BASIS OPTIONS
     -------------
     GBASIS=STO          IGAUSS=       3      POLAR=NONE    
     NDFUNC=       0     NFFUNC=       0     DIFFSP=       F
     NPFUNC=       0      DIFFS=       F     BASNAM=        


     RUN TITLE
     ---------
 Title                                                                           

 THE POINT GROUP OF THE MOLECULE IS C1      
 THE ORDER OF THE PRINCIPAL AXIS IS     0

 ATOM      ATOMIC                      COORDINATES (BOHR)
           CHARGE         X                   Y                   Z
 C           6.0     5.3343999086       -3.4392184899        1.2180719238
 C           6.0     4.1953278097       -1.1178703182        1.7765890944
 C           6.0     5.5447890366        1.1254182051        1.3982349412
 C           6.0     8.5774537105        0.9132159228        3.6437131089
 C           6.0     8.3841028812       -1.4358093268        4.8461479470
 C           6.0     8.4873589642       -3.5840338237        3.2970460701
 C           6.0    10.4295221836       -3.4862104194        1.2165655287
 C           6.0    11.4246651735       -1.3367483977        0.4484043680
 C           6.0    10.6260736796        1.1503633440        1.6035054062
 O           8.0    11.5223930710        3.1848511674        0.9663328511
 H           1.0     4.3271575135       -5.1459749147        1.7443923021
 H           1.0     6.3005011927       -3.6150462491       -0.5778888840
 H           1.0     2.7635872519       -1.1080269056        3.2412779696
 H           1.0     6.5758013312        1.3215322295       -0.3600143246
 H           1.0     4.6810044528        2.8824808742        2.0053416724
 H           1.0     8.3870476601        2.6006041113        4.7968231129
 H           1.0     7.4222335817       -1.5558539812        6.6489785323
 H           1.0     8.2905903009       -5.4213962602        4.1885425974
 H           1.0    10.9805468741       -5.2720412187        0.3752646212
 H           1.0    12.8625847573       -1.2590018769       -1.0033797764

          INTERNUCLEAR DISTANCES (ANGS.)
          ------------------------------

                1 C          2 C          3 C          4 C          5 C     

   1 C       0.0000000    1.3998798 *  2.4199450 *  3.1460386    2.7229382 *
   2 C       1.3998798 *  0.0000000    1.3997254 *  2.7402232 *  2.7532027 *
   3 C       2.4199450 *  1.3997254 *  0.0000000    2.0000000 *  2.7246048 *
   4 C       3.1460386    2.7402232 *  2.0000000 *  0.0000000    1.4001868 *
   5 C       2.7229382 *  2.7532027 *  2.7246048 *  1.4001868 *  0.0000000  
   6 C       1.9999999 *  2.7402637 *  3.1056502    2.3873784 *  1.4025940 *
   7 C       2.6963376 *  3.5414509    3.5561633    2.8337506 *  2.4572152 *
   8 C       3.4337080    3.8913531    3.4105211    2.5586664 *  2.8297370 *
   9 C       3.7123446    3.6096458    2.6911258 *  1.5351185 *  2.4949713 *
  10 O       4.7987050    4.5168250    3.3534791    2.4250733 *  3.5988852  
  11 H       1.0850802 *  2.1327906 *  3.3856107    4.0434901    3.3403210  
  12 H       1.0831655 *  2.1306341 *  2.7470452 *  3.4906288    3.2839124  
  13 H       2.1257449 *  1.0838826 *  2.1246429 *  3.2641453    3.0979812  
  14 H       2.7341714 *  2.1287409 *  1.0835720 *  2.3785424 *  3.2610808  
  15 H       3.3888257    2.1358723 *  1.0847452 *  2.4676110 *  3.3647830  
  16 H       4.0510782    3.3684691    2.4710373 *  1.0861930 *  2.1361382 *
  17 H       3.2362491    3.1012193    3.2742488    2.1470815 *  1.0831731 *
  18 H       2.4532252 *  3.3928900    4.0365515    3.3679312    2.1381703 *
  19 H       3.1727933    4.2748890    4.4752698    3.9143030    3.4068082  
  20 H       4.3108222    4.8172423    4.2664732    3.5370403    3.8996104  

                6 C          7 C          8 C          9 C         10 O     

   1 C       1.9999999 *  2.6963376 *  3.4337080    3.7123446    4.7987050  
   2 C       2.7402637 *  3.5414509    3.8913531    3.6096458    4.5168250  
   3 C       3.1056502    3.5561633    3.4105211    2.6911258 *  3.3534791  
   4 C       2.3873784 *  2.8337506 *  2.5586664 *  1.5351185 *  2.4250733 *
   5 C       1.4025940 *  2.4572152 *  2.8297370 *  2.4949713 *  3.5988852  
   6 C       0.0000000    1.5069911 *  2.4703465 *  2.8914923 *  4.1147218  
   7 C       1.5069911 *  0.0000000    1.3177011 *  2.4642945 *  3.5796815  
   8 C       2.4703465 *  1.3177011 *  0.0000000    1.5114225 *  2.4089287 *
   9 C       2.8914923 *  2.4642945 *  1.5114225 *  0.0000000    1.2238210 *
  10 O       4.1147218    3.5796815    2.4089287 *  1.2238210 *  0.0000000  
  11 H       2.4909397 *  3.3581821    4.3173991    4.7135428    5.8396683  
  12 H       2.3545967 *  2.3833828 *  3.0168197    3.5959993    4.6099625  
  13 H       3.3002712    4.3804171    4.8171621    4.4147884    5.3002552  
  14 H       3.3922169    3.3656321    2.9573139 *  2.3836140 *  2.8838910 *
  15 H       4.0291435    4.5591577    4.2893696    3.2836952    3.6653142  
  16 H       3.3680434    3.8900560    3.4957199    2.2018934 *  2.6376389 *
  17 H       2.1484503 *  3.4409208    3.9071270    3.4718626    4.4770414  
  18 H       1.0857016 *  2.1916259 *  3.3674724    3.9360588    5.1549220  
  19 H       2.2201595 *  1.0845690 *  2.0960443 *  3.4652629    4.4952661  
  20 H       3.4717430    2.1039976 *  1.0820781 *  2.2202043 *  2.6682139 *

               11 H         12 H         13 H         14 H         15 H     

   1 C       1.0850802 *  1.0831655 *  2.1257449 *  2.7341714 *  3.3888257  
   2 C       2.1327906 *  2.1306341 *  1.0838826 *  2.1287409 *  2.1358723 *
   3 C       3.3856107    2.7470452 *  2.1246429 *  1.0835720 *  1.0847452 *
   4 C       4.0434901    3.4906288    3.2641453    2.3785424 *  2.4676110 *
   5 C       3.3403210    3.2839124    3.0979812    3.2610808    3.3647830  
   6 C       2.4909397 *  2.3545967 *  3.3002712    3.3922169    4.0291435  
   7 C       3.3581821    2.3833828 *  4.3804171    3.3656321    4.5591577  
   8 C       4.3173991    3.0168197    4.8171621    2.9573139 *  4.2893696  
   9 C       4.7135428    3.5959993    4.4147884    2.3836140 *  3.2836952  
  10 O       5.8396683    4.6099625    5.3002552    2.8838910 *  3.6653142  
  11 H       0.0000000    1.8047053 *  2.4244429 *  3.7906815    4.2548419  
  12 H       1.8047053 *  0.0000000    3.0573873    2.6189231 *  3.7980666  
  13 H       2.4244429 *  3.0573873    0.0000000    3.0584907    2.4323844 *
  14 H       3.7906815    2.6189231 *  3.0584907    0.0000000    1.8039997 *
  15 H       4.2548419    3.7980666    2.4323844 *  1.8039997 *  0.0000000  
  16 H       4.9019505    4.4863345    3.6584856    2.9704530 *  2.4597681 *
  17 H       3.6094167    4.0205691    3.0635642    4.0343225    3.6957838  
  18 H       2.4684021 *  2.8956308 *  3.7437272    4.3987636    4.9287358  
  19 H       3.5952130    2.6751970 *  5.1051612    4.2141129    5.5206559  
  20 H       5.1716709    3.6964055    5.7975628    3.6122587    5.1071099  

               16 H         17 H         18 H         19 H         20 H     

   1 C       4.0510782    3.2362491    2.4532252 *  3.1727933    4.3108222  
   2 C       3.3684691    3.1012193    3.3928900    4.2748890    4.8172423  
   3 C       2.4710373 *  3.2742488    4.0365515    4.4752698    4.2664732  
   4 C       1.0861930 *  2.1470815 *  3.3679312    3.9143030    3.5370403  
   5 C       2.1361382 *  1.0831731 *  2.1381703 *  3.4068082    3.8996104  
   6 C       3.3680434    2.1484503 *  1.0857016 *  2.2201595 *  3.4717430  
   7 C       3.8900560    3.4409208    2.1916259 *  1.0845690 *  2.1039976 *
   8 C       3.4957199    3.9071270    3.3674724    2.0960443 *  1.0820781 *
   9 C       2.2018934 *  3.4718626    3.9360588    3.4652629    2.2202043 *
  10 O       2.6376389 *  4.4770414    5.1549220    4.4952661    2.6682139 *
  11 H       4.9019505    3.6094167    2.4684021 *  3.5952130    5.1716709  
  12 H       4.4863345    4.0205691    2.8956308 *  2.6751970 *  3.6964055  
  13 H       3.6584856    3.0635642    3.7437272    5.1051612    5.7975628  
  14 H       2.9704530 *  4.0343225    4.3987636    4.2141129    3.6122587  
  15 H       2.4597681 *  3.6957838    4.9287358    5.5206559    5.1071099  
  16 H       0.0000000    2.4615270 *  4.2575524    4.9713087    4.3819373  
  17 H       2.4615270 *  0.0000000    2.4679301 *  4.2935528    4.9710036  
  18 H       4.2575524    2.4679301 *  0.0000000    2.4707116 *  4.2724212  
  19 H       4.9713087    4.2935528    2.4707116 *  0.0000000    2.4563865 *
  20 H       4.3819373    4.9710036    4.2724212    2.4563865 *  0.0000000  

  * ... LESS THAN  3.000


     ATOMIC BASIS SET
     ----------------
 THE CONTRACTED PRIMITIVE FUNCTIONS HAVE BEEN UNNORMALIZED
 THE CONTRACTED BASIS FUNCTIONS ARE NOW NORMALIZED TO UNITY

  SHELL TYPE  PRIMITIVE        EXPONENT          CONTRACTION COEFFICIENT(S)

 C         

      1   S       1            71.6168373    0.154328967295
      1   S       2            13.0450963    0.535328142282
      1   S       3             3.5305122    0.444634542185

      2   L       4             2.9412494   -0.099967229187    0.155916274999
      2   L       5             0.6834831    0.399512826089    0.607683718598
      2   L       6             0.2222899    0.700115468880    0.391957393099

 C         

      3   S       7            71.6168373    0.154328967295
      3   S       8            13.0450963    0.535328142282
      3   S       9             3.5305122    0.444634542185

      4   L      10             2.9412494   -0.099967229187    0.155916274999
      4   L      11             0.6834831    0.399512826089    0.607683718598
      4   L      12             0.2222899    0.700115468880    0.391957393099

 C         

      5   S      13            71.6168373    0.154328967295
      5   S      14            13.0450963    0.535328142282
      5   S      15             3.5305122    0.444634542185

      6   L      16             2.9412494   -0.099967229187    0.155916274999
      6   L      17             0.6834831    0.399512826089    0.607683718598
      6   L      18             0.2222899    0.700115468880    0.391957393099

 C         

      7   S      19            71.6168373    0.154328967295
      7   S      20            13.0450963    0.535328142282
      7   S      21             3.5305122    0.444634542185

      8   L      22             2.9412494   -0.099967229187    0.155916274999
      8   L      23             0.6834831    0.399512826089    0.607683718598
      8   L      24             0.2222899    0.700115468880    0.391957393099

 C         

      9   S      25            71.6168373    0.154328967295
      9   S      26            13.0450963    0.535328142282
      9   S      27             3.5305122    0.444634542185

     10   L      28             2.9412494   -0.099967229187    0.155916274999
     10   L      29             0.6834831    0.399512826089    0.607683718598
     10   L      30             0.2222899    0.700115468880    0.391957393099

 C         

     11   S      31            71.6168373    0.154328967295
     11   S      32            13.0450963    0.535328142282
     11   S      33             3.5305122    0.444634542185

     12   L      34             2.9412494   -0.099967229187    0.155916274999
     12   L      35             0.6834831    0.399512826089    0.607683718598
     12   L      36             0.2222899    0.700115468880    0.391957393099

 C         

     13   S      37            71.6168373    0.154328967295
     13   S      38            13.0450963    0.535328142282
     13   S      39             3.5305122    0.444634542185

     14   L      40             2.9412494   -0.099967229187    0.155916274999
     14   L      41             0.6834831    0.399512826089    0.607683718598
     14   L      42             0.2222899    0.700115468880    0.391957393099

 C         

     15   S      43            71.6168373    0.154328967295
     15   S      44            13.0450963    0.535328142282
     15   S      45             3.5305122    0.444634542185

     16   L      46             2.9412494   -0.099967229187    0.155916274999
     16   L      47             0.6834831    0.399512826089    0.607683718598
     16   L      48             0.2222899    0.700115468880    0.391957393099

 C         

     17   S      49            71.6168373    0.154328967295
     17   S      50            13.0450963    0.535328142282
     17   S      51             3.5305122    0.444634542185

     18   L      52             2.9412494   -0.099967229187    0.155916274999
     18   L      53             0.6834831    0.399512826089    0.607683718598
     18   L      54             0.2222899    0.700115468880    0.391957393099

 O         

     19   S      55           130.7093214    0.154328967295
     19   S      56            23.8088661    0.535328142282
     19   S      57             6.4436083    0.444634542185

     20   L      58             5.0331513   -0.099967229187    0.155916274999
     20   L      59             1.1695961    0.399512826089    0.607683718598
     20   L      60             0.3803890    0.700115468880    0.391957393099

 H         

     21   S      61             3.4252509    0.154328967295
     21   S      62             0.6239137    0.535328142282
     21   S      63             0.1688554    0.444634542185

 H         

     22   S      64             3.4252509    0.154328967295
     22   S      65             0.6239137    0.535328142282
     22   S      66             0.1688554    0.444634542185

 H         

     23   S      67             3.4252509    0.154328967295
     23   S      68             0.6239137    0.535328142282
     23   S      69             0.1688554    0.444634542185

 H         

     24   S      70             3.4252509    0.154328967295
     24   S      71             0.6239137    0.535328142282
     24   S      72             0.1688554    0.444634542185

 H         

     25   S      73             3.4252509    0.154328967295
     25   S      74             0.6239137    0.535328142282
     25   S      75             0.1688554    0.444634542185

 H         

     26   S      76             3.4252509    0.154328967295
     26   S      77             0.6239137    0.535328142282
     26   S      78             0.1688554    0.444634542185

 H         

     27   S      79             3.4252509    0.154328967295
     27   S      80             0.6239137    0.535328142282
     27   S      81             0.1688554    0.444634542185

 H         

     28   S      82             3.4252509    0.154328967295
     28   S      83             0.6239137    0.535328142282
     28   S      84             0.1688554    0.444634542185

 H         

     29   S      85             3.4252509    0.154328967295
     29   S      86             0.6239137    0.535328142282
     29   S      87             0.1688554    0.444634542185

 H         

     30   S      88             3.4252509    0.154328967295
     30   S      89             0.6239137    0.535328142282
     30   S      90             0.1688554    0.444634542185

 TOTAL NUMBER OF BASIS SET SHELLS             =   30
 NUMBER OF CARTESIAN GAUSSIAN BASIS FUNCTIONS =   60
 NUMBER OF ELECTRONS                          =   72
 CHARGE OF MOLECULE                           =    0
 SPIN MULTIPLICITY                            =    1
 NUMBER OF OCCUPIED ORBITALS (ALPHA)          =   36
 NUMBER OF OCCUPIED ORBITALS (BETA )          =   36
 TOTAL NUMBER OF ATOMS                        =   20
 THE NUCLEAR REPULSION ENERGY IS      509.6173359961

     $CONTRL OPTIONS
     ---------------
 SCFTYP=RHF          RUNTYP=SADPOINT     EXETYP=RUN     
 MPLEVL=       0     CITYP =NONE         CCTYP =NONE         VBTYP =NONE    
 DFTTYP=NONE         TDDFT =NONE    
 MULT  =       1     ICHARG=       0     NZVAR =       0     COORD =UNIQUE  
 PP    =NONE         RELWFN=NONE         LOCAL =NONE         NUMGRD=       F
 ISPHER=      -1     NOSYM =       0     MAXIT =      30     UNITS =ANGS    
 PLTORB=       F     MOLPLT=       F     AIMPAC=       F     FRIEND=        
 NPRINT=       7     IREST =       0     GEOM  =INPUT   
 NORMF =       0     NORMP =       0     ITOL  =      20     ICUT  =       9
 INTTYP=BEST         GRDTYP=BEST         QMTTOL= 1.0E-06

     $SYSTEM OPTIONS
     ---------------
  REPLICATED MEMORY=     1000000 WORDS (ON EVERY NODE).
 DISTRIBUTED MEMDDI=           0 MILLION WORDS IN AGGREGATE,
 MEMDDI DISTRIBUTED OVER   1 PROCESSORS IS           0 WORDS/PROCESSOR.
 TOTAL MEMORY REQUESTED ON EACH PROCESSOR=     1000000 WORDS.
 TIMLIM=      525600.00 MINUTES, OR     365.0 DAYS.
 PARALL= F  BALTYP=  DLB     KDIAG=    0  COREFL= F
 MXSEQ2=     300 MXSEQ3=     150  mem10=         0

          ----------------
          PROPERTIES INPUT
          ----------------

     MOMENTS            FIELD           POTENTIAL          DENSITY
 IEMOM =       1   IEFLD =       0   IEPOT =       0   IEDEN =       0
 WHERE =COMASS     WHERE =NUCLEI     WHERE =NUCLEI     WHERE =NUCLEI  
 OUTPUT=BOTH       OUTPUT=BOTH       OUTPUT=BOTH       OUTPUT=BOTH    
 IEMINT=       0   IEFINT=       0                     IEDINT=       0
                                                       MORB  =       0
          EXTRAPOLATION IN EFFECT
          SOSCF IN EFFECT
 ORBITAL PRINTING OPTION: NPREO=     1    60     2     1

     -------------------------------
     INTEGRAL TRANSFORMATION OPTIONS
     -------------------------------
     NWORD  =            0
     CUTOFF = 1.0E-09     MPTRAN =       0
     DIRTRF =       F     AOINTS =DUP     

          ----------------------
          INTEGRAL INPUT OPTIONS
          ----------------------
 NOPK  =       1 NORDER=       0 SCHWRZ=       T

     ------------------------------------------
     THE POINT GROUP IS C1 , NAXIS= 0, ORDER= 1
     ------------------------------------------

     DIMENSIONS OF THE SYMMETRY SUBSPACES ARE
 A   =   60

 ..... DONE SETTING UP THE RUN .....
 STEP CPU TIME =     0.02 TOTAL CPU TIME =          0.0 (      0.0 MIN)
 TOTAL WALL CLOCK TIME=          0.0 SECONDS, CPU UTILIZATION IS    66.67%


          -----------------------------
          STATIONARY POINT LOCATION RUN
          -----------------------------

 OBTAINING INITIAL HESSIAN, HESS=CALC    

     ---------------------------------
     HESSIAN MATRIX CONTROL PARAMETERS
     ---------------------------------
     METHOD=ANALYTIC   NVIB  =       2   VIBSIZ= 0.01000
     RDHESS=       F   PURIFY=       F   PRTIFC=       F
     VIBANL=       F   DECOMP=       F   PROJCT=       F
     SCLFAC= 1.00000   PRTSCN=       F   NPRT  =       0
     PULCOR=       F   NPUN  =       0   REDOVB=       T
     HSSTYP=GENERAL 
 Old integral subroutine is used

     ------------------------------
     CPHF RESPONSE SOLUTION OPTIONS
     ------------------------------
     POLAR  =       F     NWORD  =       0
     CPHF   =AO      

          ********************
          1 ELECTRON INTEGRALS
          ********************
 ...... END OF ONE-ELECTRON INTEGRALS ......
 STEP CPU TIME =     0.01 TOTAL CPU TIME =          0.0 (      0.0 MIN)
 TOTAL WALL CLOCK TIME=          0.1 SECONDS, CPU UTILIZATION IS    60.00%

          -------------
          GUESS OPTIONS
          -------------
          GUESS =HUCKEL            NORB  =       0          NORDER=       0
          MIX   =       F          PRTMO =       F          PUNMO =       F
          TOLZ  = 1.0E-08          TOLE  = 1.0E-05
          SYMDEN=       F          PURIFY=       F

 INITIAL GUESS ORBITALS GENERATED BY HUCKEL   ROUTINE.
 HUCKEL GUESS REQUIRES     53820 WORDS.

 SYMMETRIES FOR INITIAL GUESS ORBITALS FOLLOW.   BOTH SET(S).
    36 ORBITALS ARE OCCUPIED (   10 CORE ORBITALS).
    11=A       12=A       13=A       14=A       15=A       16=A       17=A   
    18=A       19=A       20=A       21=A       22=A       23=A       24=A   
    25=A       26=A       27=A       28=A       29=A       30=A       31=A   
    32=A       33=A       34=A       35=A       36=A       37=A       38=A   
    39=A       40=A       41=A       42=A       43=A       44=A       45=A   
    46=A   
 ...... END OF INITIAL ORBITAL SELECTION ......
 STEP CPU TIME =     0.02 TOTAL CPU TIME =          0.0 (      0.0 MIN)
 TOTAL WALL CLOCK TIME=          0.1 SECONDS, CPU UTILIZATION IS    71.43%

                    ----------------------
                    AO INTEGRAL TECHNOLOGY
                    ----------------------
     S,P,L SHELL ROTATED AXIS INTEGRALS, REPROGRAMMED BY
        KAZUYA ISHIMURA (IMS) AND JOSE SIERRA (SYNSTAR).
     S,P,D,L SHELL ROTATED AXIS INTEGRALS PROGRAMMED BY
        KAZUYA ISHIMURA (INSTITUTE FOR MOLECULAR SCIENCE).
     S,P,D,F,G SHELL TO TOTAL QUARTET ANGULAR MOMENTUM SUM 5,
        ERIC PROGRAM BY GRAHAM FLETCHER (ELORET AND NASA ADVANCED
        SUPERCOMPUTING DIVISION, AMES RESEARCH CENTER).
     S,P,D,F,G,L SHELL GENERAL RYS QUADRATURE PROGRAMMED BY
        MICHEL DUPUIS (PACIFIC NORTHWEST NATIONAL LABORATORY).

          --------------------
          2 ELECTRON INTEGRALS
          --------------------

 THE -PK- OPTION IS OFF, THE INTEGRALS ARE NOT IN SUPERMATRIX FORM.
 STORING   15000 INTEGRALS/RECORD ON DISK, USING 12 BYTES/INTEGRAL.
 TWO ELECTRON INTEGRAL EVALUATION REQUIRES   89821 WORDS OF MEMORY.
 SCHWARZ INEQUALITY OVERHEAD:      1797 INTEGRALS, T=        0.00
 II,JST,KST,LST =  1  1  1  1 NREC =         1 INTLOC =    1
 II,JST,KST,LST =  2  1  1  1 NREC =         1 INTLOC =    2
 II,JST,KST,LST =  3  1  1  1 NREC =         1 INTLOC =   34
 II,JST,KST,LST =  4  1  1  1 NREC =         1 INTLOC =  144
 II,JST,KST,LST =  5  1  1  1 NREC =         1 INTLOC = 1366
 II,JST,KST,LST =  6  1  1  1 NREC =         1 INTLOC = 1961
 II,JST,KST,LST =  7  1  1  1 NREC =         1 INTLOC = 6852
 II,JST,KST,LST =  8  1  1  1 NREC =         1 INTLOC = 8472
 II,JST,KST,LST =  9  1  1  1 NREC =         2 INTLOC = 5897
 II,JST,KST,LST = 10  1  1  1 NREC =         2 INTLOC = 9699
 II,JST,KST,LST = 11  1  1  1 NREC =         4 INTLOC = 5079
 II,JST,KST,LST = 12  1  1  1 NREC =         4 INTLOC =12203
 II,JST,KST,LST = 13  1  1  1 NREC =         7 INTLOC =12348
 II,JST,KST,LST = 14  1  1  1 NREC =         8 INTLOC = 8533
 II,JST,KST,LST = 15  1  1  1 NREC =        13 INTLOC = 5627
 II,JST,KST,LST = 16  1  1  1 NREC =        14 INTLOC = 7802
 II,JST,KST,LST = 17  1  1  1 NREC =        21 INTLOC =11216
 II,JST,KST,LST = 18  1  1  1 NREC =        23 INTLOC = 6500
 II,JST,KST,LST = 19  1  1  1 NREC =        33 INTLOC =12946
 II,JST,KST,LST = 20  1  1  1 NREC =        35 INTLOC = 8025
 II,JST,KST,LST = 21  1  1  1 NREC =        47 INTLOC = 8045
 II,JST,KST,LST = 22  1  1  1 NREC =        51 INTLOC = 3389
 II,JST,KST,LST = 23  1  1  1 NREC =        55 INTLOC = 7548
 II,JST,KST,LST = 24  1  1  1 NREC =        59 INTLOC =11139
 II,JST,KST,LST = 25  1  1  1 NREC =        64 INTLOC = 9914
 II,JST,KST,LST = 26  1  1  1 NREC =        69 INTLOC =10255
 II,JST,KST,LST = 27  1  1  1 NREC =        75 INTLOC = 1862
 II,JST,KST,LST = 28  1  1  1 NREC =        80 INTLOC =11996
 II,JST,KST,LST = 29  1  1  1 NREC =        86 INTLOC = 9729
 II,JST,KST,LST = 30  1  1  1 NREC =        92 INTLOC =11749
 SCHWARZ INEQUALITY TEST SKIPPED       24153 INTEGRAL BLOCKS.
 TOTAL NUMBER OF NONZERO TWO-ELECTRON INTEGRALS =             1473932
         99 INTEGRAL RECORDS WERE STORED ON DISK FILE  8.
  ...... END OF TWO-ELECTRON INTEGRALS .....
 STEP CPU TIME =     0.28 TOTAL CPU TIME =          0.3 (      0.0 MIN)
 TOTAL WALL CLOCK TIME=          0.4 SECONDS, CPU UTILIZATION IS    91.67%

          --------------------------
                 RHF SCF CALCULATION
          --------------------------

     NUCLEAR ENERGY =       509.6173359961
     MAXIT =   30     NPUNCH=    2
     EXTRAP=T  DAMP=F  SHIFT=F  RSTRCT=F  DIIS=F  DEM=F  SOSCF=T
     DENSITY MATRIX CONV=  1.00E-05
     SOSCF WILL OPTIMIZE     864 ORBITAL ROTATIONS, SOGTOL=   0.250
     MEMORY REQUIRED FOR RHF ITERS=     59496 WORDS.

 ITER EX DEM     TOTAL ENERGY        E CHANGE  DENSITY CHANGE     ORB. GRAD
   1  0  0     -415.5233328887  -415.5233328887   0.524926106   0.000000000
          ---------------START SECOND ORDER SCF---------------
   2  1  0     -416.0288744939    -0.5055416052   0.251520534   0.064788237
   3  2  0     -416.0582865522    -0.0294120583   0.114309704   0.049241925
   4  3  0     -416.0921762021    -0.0338896499   0.020213817   0.007299059
   5  4  0     -416.0930421478    -0.0008659457   0.004688524   0.002934010
   6  5  0     -416.0931500414    -0.0001078936   0.001823938   0.000762804
   7  6  0     -416.0931625702    -0.0000125288   0.000600469   0.000261638
   8  7  0     -416.0931644203    -0.0000018501   0.000278545   0.000072916
   9  8  0     -416.0931645976    -0.0000001773   0.000162625   0.000023607
  10  9  0     -416.0931646294    -0.0000000318   0.000057123   0.000011491
  11 10  0     -416.0931646345    -0.0000000051   0.000026741   0.000003470
  12 11  0     -416.0931646355    -0.0000000010   0.000007782   0.000001378
  13 12  0     -416.0931646356    -0.0000000001   0.000003781   0.000000513

          -----------------
          DENSITY CONVERGED
          -----------------
     TIME TO FORM FOCK OPERATORS=       0.3 SECONDS (       0.0 SEC/ITER)
     TIME TO SOLVE SCF EQUATIONS=       0.0 SECONDS (       0.0 SEC/ITER)

 FINAL RHF ENERGY IS     -416.0931646356 AFTER  13 ITERATIONS

          ------------
          EIGENVECTORS
          ------------

                      1          2          3          4          5
                  -20.2612   -11.1181   -11.0543   -11.0493   -11.0456
                     A          A          A          A          A   
    1  C  1  S   -0.000000   0.000023  -0.030543  -0.005773  -0.093862
    2  C  1  S    0.000003  -0.000004  -0.003831   0.000012  -0.003305
    3  C  1  X   -0.000001   0.000013  -0.002045  -0.000227   0.000036
    4  C  1  Y   -0.000002   0.000003   0.000039  -0.000090  -0.000144
    5  C  1  Z    0.000002  -0.000008  -0.001379  -0.000188   0.000097
    6  C  2  S   -0.000000   0.000015  -0.000571   0.000061   0.003812
    7  C  2  S    0.000010  -0.000030   0.000351   0.000060  -0.005968
    8  C  2  X   -0.000002   0.000031   0.000134   0.000060  -0.001997
    9  C  2  Y    0.000009  -0.000054  -0.000202  -0.000001  -0.004133
   10  C  2  Z    0.000003  -0.000007  -0.000026  -0.000012   0.000580
   11  C  3  S   -0.000005  -0.000220  -0.000699   0.000661   0.956106
   12  C  3  S   -0.000000   0.000304  -0.000021   0.000046   0.035451
   13  C  3  X    0.000040  -0.000201  -0.000046   0.000016  -0.000703
   14  C  3  Y    0.000020   0.000007   0.000061   0.000022  -0.000514
   15  C  3  Z    0.000011  -0.000178  -0.000008  -0.000005  -0.000447
   16  C  4  S   -0.000024  -0.001610  -0.004063  -0.005460  -0.247022
   17  C  4  S    0.000270  -0.005396  -0.000069  -0.000230  -0.011510
   18  C  4  X    0.000133  -0.002911   0.000011  -0.000060   0.001687
   19  C  4  Y    0.000458  -0.000512   0.000129   0.000140   0.000113
   20  C  4  Z   -0.000025   0.002743   0.000141   0.000089   0.001116
   21  C  5  S    0.000004  -0.000278   0.003925  -0.001152  -0.002034
   22  C  5  S    0.000033   0.000070  -0.006878  -0.000015   0.001843
   23  C  5  X   -0.000056  -0.000029  -0.000252  -0.000108   0.000097
   24  C  5  Y    0.000035  -0.000003   0.003767   0.000063   0.001106
   25  C  5  Z    0.000028  -0.000001   0.002569   0.000072  -0.000552
   26  C  6  S    0.000003  -0.000254   0.991338   0.024093  -0.003383
   27  C  6  S    0.000007  -0.000064   0.036227  -0.004861   0.000126
   28  C  6  X   -0.000003  -0.000064   0.001353  -0.002889  -0.000175
   29  C  6  Y   -0.000038  -0.000074   0.000680  -0.000274   0.000002
   30  C  6  Z    0.000015   0.000048   0.000881   0.002967  -0.000114
   31  C  7  S    0.000005  -0.000272  -0.023300   0.991732  -0.002502
   32  C  7  S    0.000054   0.000111  -0.006864   0.035856  -0.000060
   33  C  7  X    0.000052  -0.000056   0.002805   0.000611  -0.000021
   34  C  7  Y   -0.000009   0.000036   0.000047   0.001447   0.000036
   35  C  7  Z   -0.000056   0.000061  -0.003281  -0.000581   0.000029
   36  C  8  S   -0.000025  -0.001005  -0.001143   0.019719   0.000526
   37  C  8  S    0.000270  -0.005689   0.000344  -0.007398   0.000038
   38  C  8  X    0.000275   0.001015  -0.000093   0.001817  -0.000046
   39  C  8  Y    0.000368  -0.003683  -0.000072   0.003950   0.000014
   40  C  8  Z   -0.000229  -0.001555   0.000143  -0.001399  -0.000021
   41  C  9  S    0.000548   0.992564   0.000267   0.000342  -0.000416
   42  C  9  S   -0.007195   0.032727  -0.000008   0.000149   0.001558
   43  C  9  X   -0.002472   0.000156   0.000031   0.000069  -0.000760
   44  C  9  Y   -0.005612   0.000289   0.000140   0.000123  -0.000067
   45  C  9  Z    0.001767  -0.000273   0.000011  -0.000058   0.000807
   46  O 10  S    0.994267   0.000162   0.000005   0.000013  -0.000002
   47  O 10  S    0.025993  -0.005790  -0.000052  -0.000115  -0.000032
   48  O 10  X   -0.002179   0.000668   0.000014   0.000014   0.000002
   49  O 10  Y   -0.004935   0.001525   0.000027   0.000063   0.000002
   50  O 10  Z    0.001545  -0.000458  -0.000016  -0.000005  -0.000053
   51  H 11  S   -0.000002   0.000002   0.000358  -0.000012   0.000557
   52  H 12  S   -0.000002   0.000006   0.000363  -0.000947   0.000624
   53  H 13  S   -0.000002   0.000006  -0.000001   0.000001   0.000038
   54  H 14  S    0.000080  -0.001056   0.000005  -0.000042  -0.006719
   55  H 15  S   -0.000006  -0.000035  -0.000017  -0.000014  -0.006680
   56  H 16  S   -0.000179  -0.000014  -0.000090  -0.000023   0.001867
   57  H 17  S   -0.000021  -0.000052   0.000080  -0.000080  -0.000015
   58  H 18  S   -0.000016  -0.000026  -0.006924  -0.000128   0.000020
   59  H 19  S   -0.000021  -0.000038   0.000240  -0.006826   0.000026
   60  H 20  S   -0.000192   0.000012  -0.000037   0.000011   0.000014

                      6          7          8          9         10
                  -11.0452   -11.0444   -11.0258   -11.0184   -11.0121
                     A          A          A          A          A   
    1  C  1  S    0.987094   0.017085  -0.000216   0.000966  -0.003436
    2  C  1  S    0.035846   0.000655   0.000047   0.000289  -0.007230
    3  C  1  X   -0.001317  -0.000101   0.000020  -0.000041   0.001897
    4  C  1  Y    0.000623  -0.000044  -0.000027   0.000005  -0.004095
    5  C  1  Z   -0.000840  -0.000029  -0.000043  -0.000085  -0.001076
    6  C  2  S    0.004591   0.000554   0.000105  -0.018477   0.991933
    7  C  2  S   -0.007394  -0.001724   0.000028  -0.001163   0.036722
    8  C  2  X   -0.002053  -0.000523   0.000005  -0.000522   0.002215
    9  C  2  Y    0.003636  -0.000833  -0.000000   0.000042  -0.000149
   10  C  2  Z    0.001068   0.000203   0.000008  -0.000472   0.001256
   11  C  3  S    0.086621   0.250568  -0.000269   0.000889  -0.003419
   12  C  3  S    0.003372   0.006488   0.000087   0.000298  -0.007232
   13  C  3  X   -0.000124  -0.002254   0.000029  -0.000047   0.002267
   14  C  3  Y    0.000057   0.000059   0.000046   0.000009   0.003977
   15  C  3  Z    0.000002  -0.001689  -0.000059  -0.000055  -0.000752
   16  C  4  S   -0.040254   0.960033   0.001486  -0.004606   0.000542
   17  C  4  S   -0.001666   0.034016   0.000248  -0.007297   0.000019
   18  C  4  X    0.000150   0.001619   0.000038   0.000435   0.000062
   19  C  4  Y    0.000048  -0.000826   0.000040   0.004097   0.000144
   20  C  4  Z    0.000131   0.001451   0.000037  -0.002059  -0.000042
   21  C  5  S   -0.001032   0.005006  -0.004291   0.991918   0.018715
   22  C  5  S    0.000172  -0.006676  -0.000269   0.036679   0.000201
   23  C  5  X    0.000008  -0.000401  -0.000141  -0.001524   0.000543
   24  C  5  Y    0.000209  -0.003939  -0.000015   0.000201  -0.000034
   25  C  5  Z   -0.000069   0.001902   0.000172  -0.001933   0.000291
   26  C  6  S    0.031305   0.004854   0.000709  -0.003115   0.000405
   27  C  6  S   -0.001558   0.000169   0.000406  -0.007214   0.000019
   28  C  6  X    0.002141   0.000055   0.000117   0.000273   0.000037
   29  C  6  Y   -0.000112  -0.000172  -0.000080  -0.003748  -0.000147
   30  C  6  Z    0.001372   0.000173  -0.000073  -0.002649  -0.000046
   31  C  7  S    0.004766   0.005180  -0.019200   0.001216  -0.000076
   32  C  7  S    0.000132   0.000118  -0.008920   0.000146   0.000008
   33  C  7  X   -0.000005   0.000072  -0.001887  -0.000081  -0.000025
   34  C  7  Y   -0.000022  -0.000147  -0.004063  -0.000143   0.000028
   35  C  7  Z   -0.000077  -0.000061   0.001440  -0.000078  -0.000027
   36  C  8  S    0.000350  -0.001211   0.991968   0.004386  -0.000030
   37  C  8  S    0.000019   0.000065   0.036541   0.000092  -0.000014
   38  C  8  X   -0.000021   0.000041  -0.000796   0.000068   0.000001
   39  C  8  Y   -0.000003   0.000025  -0.001561  -0.000006   0.000002
   40  C  8  Z   -0.000015  -0.000011   0.000742  -0.000188  -0.000004
   41  C  9  S   -0.000101   0.002579   0.001994   0.000340  -0.000013
   42  C  9  S    0.000255  -0.005456  -0.005878   0.000129  -0.000010
   43  C  9  X   -0.000126   0.002732  -0.001166  -0.000077  -0.000022
   44  C  9  Y   -0.000009   0.000285   0.003662   0.000138  -0.000027
   45  C  9  Z    0.000129  -0.002991   0.001664  -0.000050  -0.000036
   46  O 10  S    0.000001  -0.000022  -0.000022   0.000009   0.000000
   47  O 10  S   -0.000011   0.000244   0.000249  -0.000085   0.000005
   48  O 10  X    0.000002  -0.000147   0.000052   0.000044   0.000004
   49  O 10  Y    0.000003  -0.000031  -0.000201   0.000025  -0.000004
   50  O 10  Z   -0.000012   0.000172  -0.000079  -0.000008   0.000005
   51  H 11  S   -0.006889  -0.000163  -0.000010  -0.000031   0.000107
   52  H 12  S   -0.006907  -0.000133  -0.000105  -0.000057   0.000013
   53  H 13  S    0.000051   0.000009  -0.000004   0.000141  -0.007002
   54  H 14  S   -0.000660  -0.001617  -0.000208  -0.000044   0.000019
   55  H 15  S   -0.000715  -0.001615  -0.000018  -0.000040   0.000105
   56  H 16  S    0.000275  -0.006682  -0.000099   0.000120  -0.000033
   57  H 17  S   -0.000001   0.000068  -0.000031  -0.006920  -0.000118
   58  H 18  S   -0.000085  -0.000156  -0.000094   0.000106  -0.000042
   59  H 19  S    0.000012  -0.000092   0.000266  -0.000106  -0.000003
   60  H 20  S   -0.000001  -0.000067  -0.006868  -0.000089   0.000001

                     11         12         13         14         15
                   -1.3129    -1.0916    -1.0182    -0.9718    -0.9333
                     A          A          A          A          A   
    1  C  1  S   -0.000701  -0.056346  -0.102740   0.069499  -0.076389
    2  C  1  S    0.001707   0.149801   0.276517  -0.191314   0.219204
    3  C  1  X    0.000278   0.007096  -0.040949   0.020000   0.016518
    4  C  1  Y    0.000429   0.026027   0.070731  -0.028418  -0.019048
    5  C  1  Z    0.000134   0.011331   0.008060   0.007726   0.010597
    6  C  2  S   -0.001041  -0.058335  -0.147847   0.066201   0.012153
    7  C  2  S    0.002302   0.145585   0.383257  -0.175374  -0.032665
    8  C  2  X    0.000937   0.033948   0.061718  -0.018611  -0.006938
    9  C  2  Y    0.000507  -0.003532   0.003067   0.027178  -0.097469
   10  C  2  Z    0.000040  -0.001378  -0.009166   0.011377  -0.000283
   11  C  3  S   -0.003127  -0.051063  -0.114927   0.018444   0.091568
   12  C  3  S    0.007656   0.135639   0.310347  -0.047068  -0.260588
   13  C  3  X    0.002649   0.001039  -0.040425   0.038046  -0.005205
   14  C  3  Y   -0.000023  -0.028053  -0.066311   0.032235  -0.005091
   15  C  3  Z    0.000135   0.008946   0.004005   0.016212  -0.000600
   16  C  4  S   -0.021433  -0.087726  -0.008670  -0.125942   0.084086
   17  C  4  S    0.053607   0.230145   0.026357   0.348119  -0.241662
   18  C  4  X    0.019725   0.005316  -0.030605   0.007955  -0.022112
   19  C  4  Y    0.002359  -0.056678   0.009994  -0.058516  -0.031108
   20  C  4  Z   -0.018637   0.003455  -0.003657   0.046234   0.041663
   21  C  5  S   -0.005571  -0.108621   0.008415  -0.128252  -0.047909
   22  C  5  S    0.012747   0.273172  -0.021816   0.342489   0.130741
   23  C  5  X    0.001359   0.002335  -0.017304  -0.004826  -0.012101
   24  C  5  Y    0.003936  -0.003986   0.017084   0.056925  -0.124571
   25  C  5  Z   -0.004177  -0.065799   0.007940  -0.036727  -0.015462
   26  C  6  S   -0.003222  -0.112712   0.030976  -0.020075  -0.131110
   27  C  6  S    0.007679   0.296992  -0.082633   0.051380   0.372803
   28  C  6  X    0.001400   0.023019  -0.051753  -0.023722  -0.007038
   29  C  6  Y    0.002497   0.052345  -0.004322   0.062343   0.000022
   30  C  6  Z   -0.000555  -0.003984   0.015028   0.087151   0.025814
   31  C  7  S   -0.006022  -0.103349   0.093376   0.105349  -0.008353
   32  C  7  S    0.014326   0.263387  -0.245495  -0.283199   0.026858
   33  C  7  X    0.001520  -0.015871  -0.021243  -0.038770  -0.079132
   34  C  7  Y    0.006609   0.049072  -0.053452  -0.053348  -0.074801
   35  C  7  Z   -0.000817   0.020226   0.007777   0.044206   0.071712
   36  C  8  S   -0.021737  -0.081485   0.091393   0.105582   0.086805
   37  C  8  S    0.052853   0.204677  -0.237116  -0.279993  -0.235743
   38  C  8  X   -0.008332  -0.038201   0.027283   0.021096   0.013116
   39  C  8  Y    0.023714  -0.037313   0.045469   0.071041  -0.026199
   40  C  8  Z    0.011584   0.034106  -0.026875  -0.008284  -0.014947
   41  C  9  S   -0.127575  -0.035787   0.022118  -0.008424   0.070161
   42  C  9  S    0.295676   0.099408  -0.063379   0.023566  -0.207159
   43  C  9  X    0.058771  -0.038507  -0.011458  -0.063772   0.055625
   44  C  9  Y    0.135334  -0.079042   0.059615   0.033195   0.104607
   45  C  9  Z   -0.042809   0.026265   0.010929   0.075209  -0.031359
   46  O 10  S   -0.214502   0.038245  -0.015245   0.006384  -0.049548
   47  O 10  S    0.749439  -0.142740   0.058439  -0.024960   0.198050
   48  O 10  X   -0.064800   0.001790  -0.006253  -0.014908   0.013225
   49  O 10  Y   -0.145964   0.006376   0.006270   0.010179   0.019983
   50  O 10  Z    0.045471  -0.001303   0.004228   0.018790  -0.006613
   51  H 11  S    0.000184   0.028658   0.060151  -0.048092   0.070729
   52  H 12  S    0.000421   0.037017   0.060010  -0.057523   0.064855
   53  H 13  S    0.000305   0.028963   0.087693  -0.042347  -0.008023
   54  H 14  S    0.003447   0.031836   0.071679  -0.011794  -0.082257
   55  H 15  S    0.001280   0.025201   0.068268  -0.006607  -0.078877
   56  H 16  S    0.008815   0.040061   0.010980   0.089835  -0.070821
   57  H 17  S    0.001521   0.051074  -0.000183   0.088598   0.040568
   58  H 18  S    0.000819   0.055681  -0.016041   0.008951   0.119167
   59  H 19  S    0.001620   0.049433  -0.055362  -0.078134   0.014422
   60  H 20  S    0.008799   0.035088  -0.052316  -0.075097  -0.064704

                     16         17         18         19         20
                   -0.8551    -0.7742    -0.7531    -0.7105    -0.6555
                     A          A          A          A          A   
    1  C  1  S   -0.132766   0.035910  -0.009401   0.068972  -0.004021
    2  C  1  S    0.385125  -0.111584   0.033968  -0.220767   0.011417
    3  C  1  X   -0.049496  -0.043387   0.051917  -0.070811   0.056435
    4  C  1  Y   -0.015682   0.068712  -0.051167   0.143206   0.106832
    5  C  1  Z   -0.022963   0.051905  -0.010072   0.114827  -0.083039
    6  C  2  S   -0.000765  -0.055302   0.046538  -0.115136   0.004076
    7  C  2  S    0.002103   0.165130  -0.140847   0.355147  -0.015576
    8  C  2  X   -0.009186  -0.023928   0.031645  -0.091718   0.100559
    9  C  2  Y   -0.194223   0.017408   0.020920  -0.000813  -0.003602
   10  C  2  Z   -0.008232   0.033315  -0.036299   0.118237  -0.093468
   11  C  3  S    0.132075   0.014099  -0.036882   0.067818  -0.001481
   12  C  3  S   -0.383220  -0.048126   0.114106  -0.217453   0.003354
   13  C  3  X    0.045195  -0.064508   0.040913  -0.084141   0.046279
   14  C  3  Y   -0.022176  -0.064096   0.051774  -0.142055  -0.099772
   15  C  3  Z    0.019818   0.015855  -0.062628   0.094871  -0.077993
   16  C  4  S   -0.062487   0.081799   0.041298  -0.015612   0.028201
   17  C  4  S    0.180544  -0.253449  -0.120929   0.049840  -0.097402
   18  C  4  X    0.068580  -0.039248   0.078707   0.099734   0.020971
   19  C  4  Y   -0.000184  -0.130875   0.033803   0.030464  -0.213429
   20  C  4  Z    0.004089   0.042058  -0.176853  -0.068313  -0.076257
   21  C  5  S    0.006583  -0.095470   0.057864   0.047443  -0.026669
   22  C  5  S   -0.018942   0.283232  -0.175612  -0.145176   0.080802
   23  C  5  X    0.006639  -0.042875   0.035127   0.068133   0.055145
   24  C  5  Y    0.093047  -0.084579  -0.151027  -0.020848   0.025468
   25  C  5  Z    0.003096   0.041587  -0.072885  -0.068690  -0.151936
   26  C  6  S    0.071518   0.007656  -0.084283  -0.031664   0.032983
   27  C  6  S   -0.206951  -0.028867   0.260077   0.098541  -0.110867
   28  C  6  X   -0.059559  -0.061535  -0.017803   0.077744   0.064568
   29  C  6  Y    0.015099   0.110799  -0.051942  -0.029356   0.266158
   30  C  6  Z   -0.017045   0.154999   0.035606  -0.032939  -0.109329
   31  C  7  S    0.051982   0.081221   0.082571  -0.019665  -0.026264
   32  C  7  S   -0.150978  -0.246951  -0.244574   0.062691   0.080091
   33  C  7  X    0.027606   0.061178  -0.113684  -0.049567  -0.054205
   34  C  7  Y    0.048446   0.125152   0.023216  -0.035230   0.149565
   35  C  7  Z   -0.039821  -0.025169   0.119783   0.087132   0.047523
   36  C  8  S   -0.036953  -0.088575  -0.001419   0.039501   0.032399
   37  C  8  S    0.106523   0.263390   0.015843  -0.118989  -0.113879
   38  C  8  X    0.000474   0.056532  -0.024502  -0.052744  -0.162471
   39  C  8  Y    0.071209   0.097475   0.230919   0.033657  -0.067210
   40  C  8  Z    0.006886  -0.035651   0.046225   0.085813   0.139195
   41  C  9  S   -0.062125  -0.000587  -0.107404  -0.051567   0.014043
   42  C  9  S    0.189346   0.001421   0.343463   0.167438  -0.044898
   43  C  9  X   -0.029840   0.133095  -0.024755  -0.048104  -0.039001
   44  C  9  Y   -0.078201  -0.104518  -0.124317  -0.010364  -0.041545
   45  C  9  Z    0.038527  -0.135604  -0.023475   0.087440   0.015120
   46  O 10  S    0.036101  -0.001223   0.058972   0.023310  -0.029187
   47  O 10  S   -0.149806   0.005548  -0.259058  -0.104659   0.139464
   48  O 10  X   -0.010575   0.067354  -0.034197  -0.039854   0.021445
   49  O 10  Y   -0.031983  -0.049575  -0.112626  -0.031561   0.078581
   50  O 10  Z    0.014976  -0.068798   0.002750   0.059794  -0.022991
   51  H 11  S    0.143551  -0.053809   0.022774  -0.121330  -0.100294
   52  H 12  S    0.122470  -0.091145   0.032253  -0.183277   0.074168
   53  H 13  S    0.000492   0.085845  -0.083299   0.236830  -0.105101
   54  H 14  S   -0.119902  -0.050008   0.100546  -0.174539   0.063004
   55  H 15  S   -0.142557  -0.032242   0.045632  -0.121698  -0.094209
   56  H 16  S    0.054691  -0.139403  -0.095704   0.001087  -0.195772
   57  H 17  S   -0.009198   0.143511  -0.111089  -0.115404  -0.078736
   58  H 18  S   -0.075671  -0.026945   0.138664   0.039331  -0.260298
   59  H 19  S   -0.060595  -0.142374  -0.155749   0.013228  -0.080865
   60  H 20  S    0.034300   0.139439  -0.022200  -0.111442  -0.195763

                     21         22         23         24         25
                   -0.6059    -0.5917    -0.5868    -0.5546    -0.5419
                     A          A          A          A          A   
    1  C  1  S   -0.015481  -0.007153   0.001109  -0.000299   0.004295
    2  C  1  S    0.055380   0.020231   0.001441   0.002745  -0.022789
    3  C  1  X   -0.105675  -0.093517   0.107092   0.143613  -0.171411
    4  C  1  Y   -0.251816  -0.104692  -0.084141   0.036812   0.084960
    5  C  1  Z    0.095358  -0.003153  -0.107266  -0.207459   0.165222
    6  C  2  S    0.027094   0.005983   0.004752  -0.012603  -0.007387
    7  C  2  S   -0.083064  -0.016398  -0.014711   0.041458   0.023976
    8  C  2  X   -0.198116  -0.111836  -0.026848   0.022041   0.006590
    9  C  2  Y   -0.002124  -0.017812   0.139266   0.139385  -0.197925
   10  C  2  Z    0.154992   0.020861   0.034135  -0.062938  -0.035451
   11  C  3  S   -0.014123  -0.009118  -0.004507   0.004200   0.001647
   12  C  3  S    0.050976   0.029085   0.011797  -0.023752  -0.001106
   13  C  3  X   -0.085082  -0.023444  -0.137332  -0.161768   0.188304
   14  C  3  Y    0.266410   0.108914   0.000162  -0.058058   0.012178
   15  C  3  Z    0.116109  -0.057523   0.134964   0.083411  -0.202118
   16  C  4  S    0.001386   0.054889  -0.012429   0.020950  -0.006534
   17  C  4  S   -0.007246  -0.185589   0.037446  -0.071928   0.021729
   18  C  4  X   -0.007492   0.091307  -0.089323   0.032658  -0.081694
   19  C  4  Y   -0.015553  -0.077502  -0.149580   0.240844   0.068166
   20  C  4  Z    0.002171  -0.092914   0.174116   0.089059   0.131606
   21  C  5  S    0.005302  -0.055770  -0.000019   0.009444   0.017407
   22  C  5  S   -0.020379   0.190102  -0.001457  -0.026278  -0.056426
   23  C  5  X    0.047014  -0.051138   0.022600  -0.051096  -0.036515
   24  C  5  Y   -0.017444  -0.035419   0.235766  -0.082543   0.113202
   25  C  5  Z   -0.093257   0.215203  -0.034742   0.262874   0.168264
   26  C  6  S   -0.003954   0.056311   0.007027   0.000594   0.005333
   27  C  6  S    0.012160  -0.196198  -0.019290   0.000023  -0.014105
   28  C  6  X    0.022781   0.031503   0.087430   0.026057   0.073329
   29  C  6  Y    0.098213   0.028213  -0.057209  -0.079207  -0.175644
   30  C  6  Z   -0.012682   0.022414  -0.212018   0.005499  -0.070026
   31  C  7  S   -0.000668  -0.046282  -0.006218  -0.007882  -0.019751
   32  C  7  S   -0.008279   0.157142   0.039937   0.016302   0.065703
   33  C  7  X   -0.002206   0.057754  -0.163627  -0.020540  -0.053531
   34  C  7  Y    0.228044  -0.168643  -0.180478   0.268535   0.077223
   35  C  7  Z    0.059435  -0.067409   0.115184   0.047227   0.103264
   36  C  8  S   -0.014276   0.049979   0.019920  -0.018427  -0.005361
   37  C  8  S    0.034994  -0.163125  -0.053228   0.052230   0.015764
   38  C  8  X   -0.089151  -0.108046   0.009495  -0.158901  -0.148840
   39  C  8  Y   -0.095079   0.037828   0.255519  -0.091250   0.072387
   40  C  8  Z    0.105398   0.122356   0.021046   0.165385   0.161974
   41  C  9  S    0.033304  -0.086042  -0.007097  -0.011596   0.020768
   42  C  9  S   -0.114098   0.299779   0.021698   0.038212  -0.070817
   43  C  9  X   -0.015925   0.004939   0.216059   0.048234   0.059395
   44  C  9  Y   -0.044834   0.037682  -0.154751   0.016100  -0.181313
   45  C  9  Z    0.036689  -0.004325  -0.173298   0.043720  -0.147481
   46  O 10  S   -0.034125   0.054706   0.002392   0.009622  -0.028604
   47  O 10  S    0.167686  -0.269527  -0.011550  -0.049053   0.148143
   48  O 10  X    0.047496  -0.111482   0.193122  -0.026045   0.158422
   49  O 10  Y    0.133578  -0.220492  -0.153390  -0.021383   0.059550
   50  O 10  Z   -0.014376   0.076859  -0.168598   0.093518  -0.207449
   51  H 11  S    0.248257   0.114625  -0.011443  -0.134137   0.045286
   52  H 12  S   -0.070891  -0.010609   0.128175   0.209343  -0.208827
   53  H 13  S    0.154449   0.069642   0.027834  -0.026921  -0.012748
   54  H 14  S   -0.075723   0.058055  -0.148401  -0.144538   0.234057
   55  H 15  S    0.255340   0.075977   0.086260   0.034588  -0.113166
   56  H 16  S   -0.001738  -0.186576   0.004175   0.174898   0.127684
   57  H 17  S   -0.085423   0.263773  -0.044352   0.210093   0.111332
   58  H 18  S   -0.064780  -0.101284  -0.048757   0.053105   0.097982
   59  H 19  S   -0.176933   0.230024   0.071604  -0.212792  -0.076072
   60  H 20  S   -0.086649  -0.209392  -0.024491  -0.169618  -0.176276

                     26         27         28         29         30
                   -0.5155    -0.5059    -0.4865    -0.4784    -0.4506
                     A          A          A          A          A   
    1  C  1  S    0.010035  -0.008328   0.003798  -0.030609  -0.007136
    2  C  1  S   -0.036988   0.016806  -0.017705   0.106880   0.025441
    3  C  1  X   -0.009585  -0.163071   0.103356  -0.047029   0.041365
    4  C  1  Y   -0.174013   0.091372   0.185097   0.263345   0.191025
    5  C  1  Z   -0.105195  -0.120356  -0.205128   0.103140   0.011256
    6  C  2  S   -0.009588  -0.017087  -0.007625   0.007276   0.002186
    7  C  2  S    0.033834   0.060599   0.032937  -0.032376  -0.007433
    8  C  2  X   -0.038631  -0.084855  -0.228521   0.230373  -0.011769
    9  C  2  Y    0.202126  -0.108323  -0.188018  -0.193866  -0.186539
   10  C  2  Z   -0.056841  -0.191920   0.089895  -0.096947   0.017451
   11  C  3  S   -0.009802  -0.002770   0.032000  -0.005301   0.006869
   12  C  3  S    0.026454   0.000118  -0.110512   0.023885  -0.022206
   13  C  3  X   -0.087899  -0.093554   0.077001  -0.099817   0.014252
   14  C  3  Y   -0.165772   0.124200   0.262498   0.173127   0.199247
   15  C  3  Z   -0.063313  -0.199077  -0.054203   0.240248   0.014192
   16  C  4  S   -0.011464   0.008666   0.001385  -0.000434  -0.003733
   17  C  4  S    0.035537  -0.043270  -0.004801   0.008539   0.004626
   18  C  4  X    0.176997   0.184018   0.059937   0.008434  -0.003550
   19  C  4  Y   -0.185305   0.032916   0.070355   0.017555  -0.328129
   20  C  4  Z   -0.077525   0.177272  -0.102065  -0.071083   0.028109
   21  C  5  S   -0.004878  -0.021123  -0.005588   0.007869   0.000226
   22  C  5  S    0.019221   0.074380   0.022284  -0.028071  -0.001004
   23  C  5  X    0.082485   0.252967  -0.006553  -0.035636  -0.015936
   24  C  5  Y    0.116766  -0.030235  -0.086621  -0.080470   0.357926
   25  C  5  Z    0.074107  -0.023154   0.080579  -0.027722   0.027932
   26  C  6  S    0.022077  -0.006665  -0.002838   0.011538   0.004985
   27  C  6  S   -0.082776   0.013689   0.006849  -0.043198  -0.007933
   28  C  6  X    0.000828   0.245596   0.049428  -0.114541  -0.034317
   29  C  6  Y   -0.250808   0.073291   0.046693  -0.005251  -0.307356
   30  C  6  Z    0.121445   0.069180  -0.033866   0.134968  -0.114595
   31  C  7  S    0.019242   0.000837   0.011822   0.002260   0.003242
   32  C  7  S   -0.072381   0.001876  -0.029866  -0.011462  -0.021524
   33  C  7  X    0.110788   0.066315  -0.121100   0.151553  -0.032680
   34  C  7  Y   -0.051482  -0.043262  -0.114445  -0.100826   0.158868
   35  C  7  Z   -0.040397   0.195787  -0.001394  -0.093250   0.006973
   36  C  8  S   -0.010086   0.003987  -0.000959   0.003737  -0.011143
   37  C  8  S    0.036135  -0.009280   0.014252  -0.015859   0.035985
   38  C  8  X    0.013423   0.217045   0.000244  -0.031617  -0.004457
   39  C  8  Y    0.011849   0.006655   0.139419   0.051683  -0.150579
   40  C  8  Z    0.069731   0.046203  -0.115473   0.144357  -0.035380
   41  C  9  S    0.006448   0.008451   0.007550  -0.014747  -0.000388
   42  C  9  S   -0.014378  -0.034218  -0.021321   0.057980  -0.001231
   43  C  9  X   -0.097747   0.227347  -0.205735   0.058673   0.009152
   44  C  9  Y   -0.223670   0.041141  -0.149552  -0.190940   0.175295
   45  C  9  Z    0.208762   0.188146  -0.019565   0.087313   0.050515
   46  O 10  S   -0.055822   0.010162  -0.034561  -0.021377   0.018396
   47  O 10  S    0.297745  -0.054696   0.189988   0.119018  -0.105800
   48  O 10  X    0.145433   0.134605  -0.009596   0.206059  -0.169596
   49  O 10  Y    0.369989  -0.075869   0.297132   0.100898  -0.103163
   50  O 10  Z    0.011054   0.186322  -0.139485  -0.035177   0.194558
   51  H 11  S    0.102386  -0.021432  -0.270431  -0.110577  -0.166860
   52  H 12  S    0.068041   0.011901   0.217600  -0.091734   0.010574
   53  H 13  S    0.007996  -0.038619   0.239668  -0.251557   0.016251
   54  H 14  S    0.006222   0.094752   0.075993  -0.244091  -0.002106
   55  H 15  S   -0.108534   0.081460   0.114173   0.277179   0.157091
   56  H 16  S   -0.181297   0.080276  -0.000065  -0.013915  -0.256670
   57  H 17  S    0.030899  -0.086041   0.092974  -0.021994   0.011331
   58  H 18  S    0.223543  -0.057253  -0.065465   0.048662   0.233692
   59  H 19  S    0.052612  -0.023682   0.049598   0.163862  -0.174299
   60  H 20  S   -0.015819   0.106136   0.092516  -0.129251   0.036878

                     31         32         33         34         35
                   -0.4448    -0.4166    -0.3569    -0.3144    -0.2713
                     A          A          A          A          A   
    1  C  1  S    0.009259   0.002052  -0.005567  -0.000064   0.027379
    2  C  1  S   -0.038099   0.006973   0.006529   0.000806  -0.131991
    3  C  1  X    0.058884   0.242736  -0.029810  -0.008407  -0.317744
    4  C  1  Y    0.009819  -0.024902  -0.016975   0.006639  -0.015343
    5  C  1  Z   -0.189458   0.105787  -0.161278   0.030608  -0.234450
    6  C  2  S   -0.002710   0.020844   0.012992  -0.003301  -0.006686
    7  C  2  S    0.015294  -0.073936  -0.049653   0.010561   0.028502
    8  C  2  X   -0.169275  -0.028792   0.044180   0.019092  -0.063992
    9  C  2  Y   -0.015032  -0.004674  -0.045068   0.000860  -0.062896
   10  C  2  Z    0.037601   0.243673   0.148261  -0.006631  -0.107379
   11  C  3  S    0.014570  -0.005330  -0.011669  -0.002307  -0.012033
   12  C  3  S   -0.052070   0.021576   0.066528   0.010733   0.071825
   13  C  3  X    0.064468   0.183303   0.268922  -0.011875   0.180412
   14  C  3  Y    0.051826   0.012738  -0.044603  -0.001818  -0.046495
   15  C  3  Z   -0.095776  -0.077768   0.226656   0.025493   0.180898
   16  C  4  S   -0.023870   0.008954  -0.015923  -0.031803  -0.012642
   17  C  4  S    0.087611  -0.029137   0.085756   0.144726   0.069440
   18  C  4  X   -0.059058  -0.023180  -0.237764   0.235900  -0.291231
   19  C  4  Y   -0.046788   0.036588  -0.013034   0.023433  -0.017164
   20  C  4  Z    0.103769  -0.029611  -0.231085  -0.233486  -0.139851
   21  C  5  S   -0.004583   0.017139   0.011829   0.007262  -0.001794
   22  C  5  S    0.007887  -0.063460  -0.041924  -0.023152   0.003317
   23  C  5  X    0.083456  -0.176219  -0.072503   0.067630  -0.046893
   24  C  5  Y   -0.017839  -0.023584  -0.025944  -0.039508  -0.069153
   25  C  5  Z   -0.223509  -0.004195   0.043716   0.129812  -0.035790
   26  C  6  S    0.002388  -0.006514   0.018164  -0.001427   0.005954
   27  C  6  S   -0.020145   0.037545  -0.078883   0.009164  -0.050788
   28  C  6  X   -0.135769  -0.222654   0.228144   0.048886   0.231914
   29  C  6  Y   -0.038002   0.052386  -0.053763  -0.032594  -0.032920
   30  C  6  Z    0.317170  -0.122629   0.064447  -0.078582   0.134348
   31  C  7  S    0.009982   0.003076  -0.009220  -0.012248  -0.006445
   32  C  7  S   -0.052049  -0.008950   0.036390   0.044349   0.025654
   33  C  7  X    0.240024  -0.002842   0.275701  -0.122113  -0.267975
   34  C  7  Y    0.058777  -0.011503  -0.009900   0.102303   0.023944
   35  C  7  Z   -0.233731  -0.041777   0.359991  -0.062670  -0.171895
   36  C  8  S    0.005669  -0.000670   0.006423   0.037096  -0.005680
   37  C  8  S   -0.038527   0.002657  -0.027142  -0.165539   0.027936
   38  C  8  X   -0.132632   0.068043   0.309676   0.009046  -0.279949
   39  C  8  Y   -0.125911   0.003957  -0.075517  -0.242476   0.076706
   40  C  8  Z    0.105742   0.091023   0.245905  -0.223739  -0.252606
   41  C  9  S    0.002636  -0.002342   0.006965   0.001059   0.008991
   42  C  9  S   -0.011139   0.012226  -0.025259  -0.002706  -0.037523
   43  C  9  X    0.101322   0.301951  -0.025484  -0.080138   0.136165
   44  C  9  Y    0.017503  -0.071295   0.040634   0.084810  -0.004872
   45  C  9  Z   -0.148247   0.309148  -0.021808   0.156550   0.056633
   46  O 10  S    0.011045  -0.002744   0.000769  -0.000307  -0.000256
   47  O 10  S   -0.064232   0.016526  -0.006727   0.001537  -0.001266
   48  O 10  X    0.106585   0.361350   0.015544   0.515303   0.197078
   49  O 10  Y   -0.257812  -0.008572  -0.068269  -0.370006  -0.001505
   50  O 10  Z   -0.197965   0.338879  -0.106185  -0.458896   0.356671
   51  H 11  S   -0.110278  -0.078829  -0.008483   0.010929   0.072777
   52  H 12  S    0.182903   0.044929   0.124327  -0.027605   0.031372
   53  H 13  S    0.165009   0.173370   0.060640  -0.018776  -0.025359
   54  H 14  S    0.103150   0.160286  -0.040515  -0.041134  -0.070015
   55  H 15  S   -0.042271  -0.086601  -0.069397   0.016663  -0.049153
   56  H 16  S    0.070646   0.000677  -0.103429  -0.110596  -0.042280
   57  H 17  S   -0.248083   0.050495   0.069634   0.113875  -0.009509
   58  H 18  S    0.189688  -0.068198   0.012000  -0.009131   0.080126
   59  H 19  S    0.095385   0.022845  -0.058567  -0.116484  -0.009539
   60  H 20  S   -0.204058  -0.017921   0.035773   0.120132  -0.000856

                     36         37         38         39         40
                   -0.2234     0.2066     0.2158     0.3540     0.3893
                     A          A          A          A          A   
    1  C  1  S   -0.025336  -0.000834  -0.041501   0.031323  -0.030427
    2  C  1  S    0.090353   0.030681   0.208649  -0.135102   0.160116
    3  C  1  X    0.156446   0.122980   0.335602  -0.291277   0.308363
    4  C  1  Y    0.014823  -0.044134  -0.008063  -0.028287  -0.051970
    5  C  1  Z    0.126518   0.073726   0.239988  -0.323559   0.177395
    6  C  2  S    0.021822  -0.018897  -0.007413  -0.001270  -0.007742
    7  C  2  S   -0.105582   0.106265   0.042206   0.009120   0.057599
    8  C  2  X    0.318787  -0.341764  -0.135974  -0.039651  -0.208070
    9  C  2  Y   -0.040175   0.013723   0.059750  -0.003108   0.015663
   10  C  2  Z    0.437777  -0.403332  -0.161848  -0.043950  -0.256655
   11  C  3  S   -0.030104  -0.025517   0.030012  -0.040390  -0.021924
   12  C  3  S    0.113831   0.148722  -0.131697   0.185295   0.121968
   13  C  3  X    0.203287   0.291630  -0.150974   0.362839   0.226214
   14  C  3  Y   -0.044530  -0.000817   0.049805  -0.069334   0.029953
   15  C  3  Z    0.173317   0.206311  -0.125382   0.373615   0.097864
   16  C  4  S    0.032019  -0.009364  -0.022233   0.051600  -0.008532
   17  C  4  S   -0.124057   0.072844   0.097160  -0.250352   0.063474
   18  C  4  X    0.162548  -0.169102  -0.215495   0.469765   0.011382
   19  C  4  Y    0.007020   0.047100   0.011937   0.010042  -0.015133
   20  C  4  Z    0.151731  -0.142459  -0.154639   0.283462   0.055127
   21  C  5  S   -0.022797  -0.019300  -0.006675   0.002394   0.020672
   22  C  5  S    0.108347   0.109162   0.036614  -0.013811  -0.115268
   23  C  5  X    0.525226   0.547710   0.193665  -0.015481  -0.139805
   24  C  5  Y   -0.030943  -0.047574   0.042903   0.074156  -0.019256
   25  C  5  Z    0.168087   0.229357   0.087636   0.009573  -0.014821
   26  C  6  S    0.030080  -0.019743   0.009720  -0.054053   0.006645
   27  C  6  S   -0.119246   0.111303  -0.018553   0.270842  -0.014579
   28  C  6  X    0.227308  -0.268324   0.071464  -0.462637   0.162594
   29  C  6  Y   -0.033412  -0.012241  -0.024958   0.061635  -0.017112
   30  C  6  Z    0.151766  -0.198935   0.022024  -0.241562   0.125778
   31  C  7  S    0.008335   0.015309   0.008906   0.001376  -0.001048
   32  C  7  S   -0.034307  -0.074067  -0.041554  -0.008585   0.008119
   33  C  7  X   -0.032851  -0.115192   0.374129   0.313900   0.284572
   34  C  7  Y    0.003022   0.030748  -0.041092  -0.041105  -0.045155
   35  C  7  Z   -0.092955  -0.233618   0.275181   0.279713   0.256560
   36  C  8  S   -0.004772  -0.007530  -0.002860  -0.001390  -0.002294
   37  C  8  S    0.021433   0.033656   0.012833   0.008263   0.012928
   38  C  8  X   -0.138627   0.211081  -0.216588  -0.174967  -0.410256
   39  C  8  Y    0.045068  -0.012454   0.027461   0.014908   0.052023
   40  C  8  Z   -0.103475   0.223589  -0.209069  -0.175971  -0.408861
   41  C  9  S    0.009049   0.018683   0.003265  -0.001810  -0.000295
   42  C  9  S   -0.038369  -0.089639  -0.017695   0.011922   0.003513
   43  C  9  X    0.048777   0.129142  -0.298717  -0.154233   0.435857
   44  C  9  Y   -0.004079  -0.013104   0.034722   0.025535  -0.056451
   45  C  9  Z   -0.048780  -0.038087  -0.328919  -0.157528   0.419777
   46  O 10  S   -0.000120  -0.002096  -0.000888   0.001455   0.000131
   47  O 10  S   -0.001297   0.009124   0.004905  -0.009516  -0.001456
   48  O 10  X   -0.062283  -0.107458   0.363133   0.130955  -0.311559
   49  O 10  Y    0.031504   0.016641  -0.051399  -0.004089   0.046413
   50  O 10  Z    0.064358  -0.014041   0.377125   0.113849  -0.302485
   51  H 11  S    0.002584  -0.045414  -0.056231  -0.011563  -0.037151
   52  H 12  S    0.072406  -0.131356  -0.059829  -0.066497  -0.071163
   53  H 13  S    0.047311  -0.016329  -0.004395  -0.002200   0.010072
   54  H 14  S    0.061127  -0.129704  -0.042795   0.032280  -0.079888
   55  H 15  S   -0.003303  -0.076663   0.006640   0.001174  -0.040043
   56  H 16  S    0.005998  -0.067688   0.003367   0.019304  -0.091472
   57  H 17  S   -0.061270  -0.020290  -0.006357  -0.002893   0.030521
   58  H 18  S    0.005267  -0.055071  -0.067881  -0.057486  -0.085963
   59  H 19  S    0.023195   0.030861   0.008420   0.006653  -0.017278
   60  H 20  S   -0.024859  -0.041800  -0.021720  -0.013647  -0.016382

                     41         42         43         44         45
                    0.5164     0.5729     0.5898     0.6220     0.6226
                     A          A          A          A          A   
    1  C  1  S   -0.010767   0.024626   0.003129  -0.006990   0.036583
    2  C  1  S    0.038371  -0.158864  -0.018601   0.047404  -0.230899
    3  C  1  X    0.380394   0.183845   0.122330   0.007263   0.231748
    4  C  1  Y   -0.048234   0.123272   0.045151   0.041439   0.183063
    5  C  1  Z    0.265448  -0.127560  -0.181701  -0.063623  -0.264368
    6  C  2  S   -0.031037   0.020546   0.013937  -0.000033   0.042469
    7  C  2  S    0.194068  -0.127543  -0.087458  -0.002775  -0.268454
    8  C  2  X   -0.197151   0.190876   0.157544  -0.025242   0.396805
    9  C  2  Y    0.026558  -0.004589  -0.000478   0.040630  -0.008276
   10  C  2  Z   -0.309285  -0.168584  -0.122273  -0.003220  -0.294727
   11  C  3  S   -0.011576   0.013075   0.025835   0.028235   0.030534
   12  C  3  S    0.042532  -0.084367  -0.165545  -0.177463  -0.191984
   13  C  3  X    0.385541   0.177835   0.119341  -0.039189   0.224548
   14  C  3  Y    0.004290  -0.100307  -0.111062  -0.033096  -0.168556
   15  C  3  Z    0.282308  -0.188319  -0.063668   0.140508  -0.291343
   16  C  4  S    0.043563  -0.000389   0.047269   0.111190  -0.011890
   17  C  4  S   -0.230917  -0.020122  -0.290134  -0.653603   0.085206
   18  C  4  X    0.368732   0.227171  -0.024979  -0.494754  -0.158068
   19  C  4  Y   -0.079163  -0.111608  -0.171939  -0.109049   0.116908
   20  C  4  Z    0.348999  -0.328801  -0.065624   0.266581   0.175386
   21  C  5  S    0.010215   0.043996   0.019038   0.001828  -0.050092
   22  C  5  S   -0.078628  -0.274887  -0.121552  -0.016110   0.315098
   23  C  5  X   -0.375667   0.140367   0.033008   0.104492  -0.095656
   24  C  5  Y    0.035035   0.039048  -0.012926   0.129544  -0.035546
   25  C  5  Z   -0.126994  -0.306229  -0.194548   0.115729   0.317568
   26  C  6  S    0.040488   0.054992  -0.065035  -0.015270   0.006692
   27  C  6  S   -0.214528  -0.347440   0.377425   0.088936  -0.025078
   28  C  6  X    0.380437   0.034057   0.346395   0.022254  -0.219750
   29  C  6  Y    0.043335   0.291836  -0.060461   0.199362  -0.145390
   30  C  6  Z    0.339110  -0.185026  -0.316223  -0.087350   0.218322
   31  C  7  S   -0.015768   0.050707   0.021230   0.050729  -0.049028
   32  C  7  S    0.089806  -0.309389  -0.113714  -0.339768   0.293087
   33  C  7  X   -0.280033  -0.020366   0.329263   0.015680  -0.133439
   34  C  7  Y    0.039621   0.271895  -0.226471   0.248568  -0.097042
   35  C  7  Z   -0.149771   0.122069  -0.447027   0.062048   0.125658
   36  C  8  S    0.014617  -0.010947   0.023344   0.110999  -0.001338
   37  C  8  S   -0.085143   0.042066  -0.120240  -0.682965   0.012790
   38  C  8  X    0.197072  -0.150477   0.301439  -0.229748  -0.057942
   39  C  8  Y   -0.028023   0.185799  -0.379842  -0.307673   0.056895
   40  C  8  Z    0.221381   0.133768  -0.327780   0.139598   0.061405
   41  C  9  S   -0.017976   0.090949  -0.088988  -0.128950  -0.016752
   42  C  9  S    0.102697  -0.536138   0.525753   0.758363   0.096534
   43  C  9  X   -0.298621   0.095878   0.130811  -0.237540  -0.123117
   44  C  9  Y    0.035949   0.071520  -0.314042  -0.251018   0.078756
   45  C  9  Z   -0.171670  -0.067472  -0.175203   0.317033   0.122290
   46  O 10  S    0.002665  -0.018923   0.013332   0.007235   0.003767
   47  O 10  S   -0.015607   0.118532  -0.079621  -0.029632  -0.024833
   48  O 10  X    0.156400  -0.088015  -0.017241   0.039276   0.048932
   49  O 10  Y   -0.009426  -0.141726   0.152234   0.012250   0.005723
   50  O 10  Z    0.104062   0.054154   0.035643  -0.086525  -0.046393
   51  H 11  S    0.068634   0.308775   0.174636   0.028511   0.463392
   52  H 12  S   -0.002647  -0.125824  -0.219822  -0.081749  -0.240014
   53  H 13  S   -0.041684   0.347614   0.258569  -0.019992   0.652744
   54  H 14  S   -0.011573  -0.215559  -0.043326   0.220103  -0.281888
   55  H 15  S    0.066153   0.273335   0.251633   0.041164   0.439310
   56  H 16  S    0.033072   0.311272   0.348634   0.239594  -0.265253
   57  H 17  S   -0.021429   0.518200   0.274363  -0.064150  -0.516067
   58  H 18  S    0.053509   0.538197  -0.087232   0.168993  -0.237588
   59  H 19  S   -0.004012   0.482976  -0.424539   0.397534  -0.144201
   60  H 20  S    0.085967   0.165409  -0.390747   0.657579   0.090818

                     46         47         48         49         50
                    0.6647     0.6977     0.7143     0.7259     0.7411
                     A          A          A          A          A   
    1  C  1  S    0.034119  -0.116180  -0.027517   0.126715  -0.066131
    2  C  1  S   -0.213957   0.738832   0.166716  -0.810778   0.417315
    3  C  1  X   -0.091505  -0.142586   0.031757  -0.189471   0.032034
    4  C  1  Y   -0.133036  -0.370629   0.310494  -0.150829  -0.314995
    5  C  1  Z    0.224991  -0.156864  -0.086443   0.481020  -0.135561
    6  C  2  S   -0.010852   0.070647   0.062730  -0.013910  -0.006796
    7  C  2  S    0.063710  -0.430956  -0.389440   0.086170   0.068662
    8  C  2  X   -0.060408   0.054983   0.020579  -0.013574   0.018518
    9  C  2  Y   -0.133420  -0.109550   0.089032  -0.361753  -0.050293
   10  C  2  Z    0.000931  -0.003036  -0.007523  -0.013168   0.052060
   11  C  3  S    0.001772  -0.088333  -0.122481  -0.090401  -0.067070
   12  C  3  S   -0.011942   0.553128   0.785335   0.582142   0.422265
   13  C  3  X    0.066832   0.028814  -0.125636   0.206738   0.127655
   14  C  3  Y   -0.203379  -0.107969   0.448454  -0.168980   0.140207
   15  C  3  Z   -0.089489  -0.258942  -0.103290  -0.450968  -0.208253
   16  C  4  S    0.013481  -0.023980  -0.045540   0.024735   0.130881
   17  C  4  S   -0.092119   0.152779   0.301352  -0.138621  -0.818000
   18  C  4  X    0.085574   0.079410   0.062188  -0.067011  -0.048398
   19  C  4  Y   -0.491707  -0.237714   0.124200   0.145540   0.109201
   20  C  4  Z   -0.232320   0.082449   0.156008   0.139698  -0.183332
   21  C  5  S    0.000256   0.055701   0.046966   0.002031  -0.146774
   22  C  5  S   -0.008916  -0.351562  -0.307131  -0.009589   0.935619
   23  C  5  X    0.088597  -0.068360   0.035373  -0.010108  -0.080618
   24  C  5  Y   -0.316204  -0.085630   0.031842   0.164685   0.063226
   25  C  5  Z   -0.040902   0.039403   0.013344   0.054635  -0.120532
   26  C  6  S    0.080011  -0.080059   0.031109  -0.051365   0.115964
   27  C  6  S   -0.478225   0.510368  -0.191888   0.303773  -0.728615
   28  C  6  X   -0.368931   0.129947  -0.091436   0.082903   0.030994
   29  C  6  Y   -0.243060  -0.293910   0.341781   0.117788   0.057814
   30  C  6  Z    0.205030   0.167064   0.103785  -0.132417  -0.275936
   31  C  7  S   -0.120689   0.062315  -0.086095   0.052444  -0.025941
   32  C  7  S    0.743618  -0.412082   0.548574  -0.322143   0.160189
   33  C  7  X   -0.110841  -0.072874   0.044563   0.132907  -0.047675
   34  C  7  Y   -0.198419   0.099407   0.047538   0.103382  -0.179430
   35  C  7  Z    0.189057  -0.065185  -0.049296  -0.033154   0.049303
   36  C  8  S    0.091447  -0.004477   0.106792  -0.003095  -0.043157
   37  C  8  S   -0.552077   0.014876  -0.682520   0.015845   0.287631
   38  C  8  X   -0.111616  -0.123856   0.061367   0.038702   0.030629
   39  C  8  Y   -0.106216  -0.105907  -0.052740  -0.075391   0.087044
   40  C  8  Z    0.049330   0.190081  -0.065422  -0.073105  -0.059121
   41  C  9  S    0.004975   0.028096  -0.048223  -0.040487  -0.024133
   42  C  9  S   -0.042235  -0.182850   0.290870   0.243636   0.144181
   43  C  9  X    0.121629  -0.097166   0.157897  -0.087715  -0.173204
   44  C  9  Y   -0.303453  -0.114485  -0.209223  -0.009826   0.179874
   45  C  9  Z   -0.138440  -0.038822  -0.290968   0.018564   0.223933
   46  O 10  S   -0.017014  -0.020887   0.011203   0.007724   0.010187
   47  O 10  S    0.120927   0.143567  -0.073914  -0.051276  -0.069625
   48  O 10  X   -0.126555  -0.052802  -0.014473   0.045711   0.085031
   49  O 10  Y   -0.091822  -0.153388   0.138675   0.053449   0.027228
   50  O 10  Z    0.098896   0.074912   0.069854  -0.023314  -0.099593
   51  H 11  S   -0.113771  -0.652471   0.180735   0.043291  -0.387538
   52  H 12  S    0.321865  -0.425227  -0.132270   0.860921  -0.321772
   53  H 13  S   -0.082963   0.284872   0.226449  -0.043680  -0.021679
   54  H 14  S   -0.089072  -0.457776  -0.428725  -0.737191  -0.416550
   55  H 15  S    0.220657  -0.090596  -0.733991   0.088536  -0.202015
   56  H 16  S    0.582129   0.083057  -0.284666  -0.115303   0.402940
   57  H 17  S    0.041829   0.116302   0.148833  -0.030950  -0.392873
   58  H 18  S   -0.089874  -0.534709   0.326148   0.000180   0.514424
   59  H 19  S   -0.467322   0.290335  -0.261623   0.171912  -0.188256
   60  H 20  S    0.421201   0.197440   0.257154  -0.081685  -0.185893

                     51         52         53         54         55
                    0.7565     0.7867     0.8227     0.8762     0.8827
                     A          A          A          A          A   
    1  C  1  S    0.067997   0.037221  -0.025646   0.010367  -0.023246
    2  C  1  S   -0.439318  -0.232867   0.159333  -0.072371   0.169193
    3  C  1  X    0.179569   0.269512  -0.180845  -0.079650  -0.168384
    4  C  1  Y    0.460257  -0.333080   0.246179  -0.055936   0.127268
    5  C  1  Z   -0.071621  -0.357675   0.284518   0.126984   0.073725
    6  C  2  S   -0.024359  -0.164882   0.110753   0.012941  -0.001706
    7  C  2  S    0.160432   1.091410  -0.740888  -0.087891   0.011873
    8  C  2  X    0.008090   0.110663  -0.096310   0.134690   0.041776
    9  C  2  Y    0.100993  -0.001991   0.013867   0.000571   0.388202
   10  C  2  Z    0.041402   0.268844  -0.186048  -0.159248   0.007059
   11  C  3  S   -0.056234   0.053187  -0.020867   0.006607   0.023601
   12  C  3  S    0.361841  -0.334115   0.131021  -0.052245  -0.169955
   13  C  3  X   -0.048903   0.286605  -0.229079  -0.032580   0.173783
   14  C  3  Y    0.557813   0.304482  -0.242737   0.022536   0.154596
   15  C  3  Z    0.046077  -0.302974   0.270168   0.105830  -0.075641
   16  C  4  S    0.054569  -0.053834  -0.012726   0.032757   0.083118
   17  C  4  S   -0.345052   0.339045   0.083090  -0.232858  -0.576870
   18  C  4  X    0.028726   0.198253   0.342975   0.018288   0.116978
   19  C  4  Y   -0.311960   0.226901   0.155571   0.585388   0.047539
   20  C  4  Z   -0.126090  -0.148342  -0.340041  -0.040466  -0.553757
   21  C  5  S   -0.033154  -0.046229  -0.118238  -0.058204  -0.003682
[...]
 18   H            X -0.10010004 -0.02158769 -0.00932462  0.07353283 -0.01713684
                   Y -0.03121532  0.00288592  0.02444384  0.00323594 -0.00272771
                   Z  0.05024168 -0.00116972 -0.02603638 -0.06380421  0.01010939
 19   H            X -0.04451617 -0.00242407  0.01517626  0.12532610 -0.02522169
                   Y -0.02728324 -0.00154504  0.01438779 -0.03104866  0.00946067
                   Z  0.04865927  0.00250637 -0.00998408 -0.12723887  0.02566295
 20   H            X  0.00960604  0.00070752 -0.00252614  0.06873975 -0.01693526
                   Y  0.00007802  0.00082155  0.00690176 -0.07521460  0.09066885
                   Z -0.01443797  0.00082955  0.01500668 -0.09505621  0.03164854

 TRANS. SAYVETZ    X  0.00000057  0.00000109 -0.00000228  0.00000060 -0.00000016
                   Y -0.00000044 -0.00000056 -0.00000184  0.00000085  0.00000033
                   Z  0.00000014  0.00000161  0.00000083 -0.00000133  0.00000087
               TOTAL  0.00000074  0.00000202  0.00000305  0.00000169  0.00000094

   ROT. SAYVETZ    X  0.00003952  0.00009999 -0.00007779  0.00002442  0.00000912
                   Y  0.00001004 -0.00017733 -0.00002223 -0.00002681 -0.00000926
                   Z -0.00008190  0.00013495  0.00009809  0.00003684  0.00001339
               TOTAL  0.00009148  0.00024425  0.00012715  0.00005169  0.00001866

                           51          52          53          54          55
       FREQUENCY:      3630.06     3634.31     3686.09     3693.06     3695.66  
        SYMMETRY:         A           A           A           A           A   
    REDUCED MASS:      1.06267     1.06462     1.09101     1.09411     1.09590
    IR INTENSITY:      0.09876     0.07249     0.19347     0.04543     0.14148

  1   C            X  0.00004126  0.00023959 -0.00158091  0.00054303 -0.00449966
                   Y -0.05108738  0.02768989  0.00483099 -0.00049229  0.00688996
                   Z -0.03138018  0.01783923  0.00396493 -0.00186739  0.00732250
  2   C            X  0.00480760  0.00108005  0.01285955 -0.00742176  0.05859552
                   Y  0.00209310 -0.00675030 -0.00025020 -0.00020889 -0.00090771
                   Z -0.00756117 -0.00250829 -0.01210495  0.00693557 -0.05532159
  3   C            X  0.00393697  0.00709784 -0.00235763  0.00103793 -0.00556048
                   Y  0.02696447  0.05183684 -0.00440313  0.00225333 -0.00631739
                   Z -0.01540432 -0.03116895  0.00425483 -0.00047482  0.00705118
  4   C            X  0.00037782  0.00049080  0.00646438  0.00510740 -0.00127719
                   Y -0.00237163 -0.00158442 -0.04685813 -0.04511469  0.00888690
                   Z -0.00215033  0.00008853 -0.03265572 -0.02882260  0.00502700
  5   C            X -0.00177931 -0.00055811 -0.01913073  0.00361219  0.00063203
                   Y -0.00032022  0.00037896 -0.00147120  0.00553784  0.00048424
                   Z  0.00324685  0.00108844  0.03572399 -0.00639890 -0.00118405
  6   C            X  0.00049828 -0.00032889  0.00431039 -0.00549202 -0.00202986
                   Y  0.00294926  0.00028711  0.03447376 -0.05530749 -0.01823911
                   Z -0.00130687 -0.00123508 -0.01766076  0.02534489  0.00740951
  7   C            X  0.00052480 -0.00010331  0.00120320 -0.00313432 -0.00164381
                   Y -0.00046026 -0.00007613 -0.00727037  0.01554984  0.00721753
                   Z  0.00007848 -0.00001306 -0.00237459  0.00554175  0.00280070
  8   C            X -0.00030993 -0.00013737 -0.00241831  0.00575961  0.00246146
                   Y -0.00003879 -0.00011233  0.00042428 -0.00070294 -0.00037418
                   Z  0.00041378  0.00008933  0.00232018 -0.00576824 -0.00249983
  9   C            X  0.00013631  0.00024753 -0.00091729 -0.00128957  0.00013973
                   Y -0.00001010  0.00007135  0.00019300  0.00038991  0.00004402
                   Z  0.00032991  0.00016489  0.00086295  0.00130516 -0.00007644
 10   O            X -0.00000901 -0.00000454  0.00004451  0.00016333 -0.00003432
                   Y -0.00001101 -0.00003114 -0.00000711  0.00004232 -0.00002427
                   Z -0.00001011  0.00003058 -0.00006365 -0.00017006  0.00000790
 11   H            X  0.29877043 -0.16009806 -0.01866098  0.00216523 -0.01376257
                   Y  0.49517215 -0.26568102 -0.03442538  0.00480503 -0.02657396
                   Z -0.16260623  0.08771587  0.01200127 -0.00153253  0.00899177
 12   H            X -0.28227841  0.15281720  0.03073858 -0.01042958  0.04297827
                   Y  0.05294474 -0.02937165 -0.00529539  0.00164776 -0.00586781
                   Z  0.51932436 -0.28347487 -0.05185967  0.01913564 -0.08028864
 13   H            X -0.10067345 -0.03040071 -0.13778082  0.08009956 -0.63852218
                   Y  0.00218273 -0.00250623  0.00174602 -0.00102836  0.00835496
                   Z  0.10097361  0.03026313  0.13870386 -0.08018040  0.63861705
 14   H            X -0.16446617 -0.31533610  0.03562736 -0.00766881  0.04704887
                   Y -0.02669079 -0.05294234  0.00515745 -0.00107079  0.00567927
                   Z  0.27200461  0.52472900 -0.05452768  0.01226578 -0.07986898
 15   H            X  0.13231581  0.25076637 -0.01429671  0.00476060 -0.00929526
                   Y -0.26518189 -0.50290504  0.03218468 -0.01098917  0.02307675
                   Z -0.09127483 -0.17383272  0.01203978 -0.00429556  0.00834914
 16   H            X -0.00213707 -0.00052217 -0.06075464 -0.05630558  0.01115448
                   Y  0.03150274  0.00961161  0.53557323  0.49487257 -0.09265401
                   Z  0.02326851  0.00708839  0.36973141  0.33942844 -0.06288627
 17   H            X  0.02072491  0.00653586  0.21877609 -0.04018685 -0.01025150
                   Y  0.00250189  0.00068345  0.02806429 -0.00659642 -0.00142000
                   Z -0.03840488 -0.01214086 -0.42005604  0.07662310  0.01972550
 18   H            X -0.00176682 -0.00050235 -0.03807695  0.05921093  0.01959277
                   Y -0.03389170 -0.01191326 -0.39948783  0.61863162  0.19700388
                   Z  0.01753230  0.00643723  0.19482358 -0.29949993 -0.09437723
 19   H            X -0.00229095 -0.00011258 -0.02286365  0.05009046  0.02328313
                   Y  0.00668297  0.00101580  0.07721789 -0.16787060 -0.07824339
                   Z  0.00372626  0.00030871  0.03622407 -0.07821288 -0.03650227
 20   H            X  0.00390740  0.00133433  0.02524707 -0.06911686 -0.02913216
                   Y  0.00025332  0.00029404  0.00145522 -0.00320507 -0.00139813
                   Z -0.00458386 -0.00117778 -0.02568605  0.06902986  0.02902100

 TRANS. SAYVETZ    X  0.00000110 -0.00000071 -0.00000044  0.00000011 -0.00000009
                   Y -0.00000112 -0.00000125 -0.00000032 -0.00000033 -0.00000083
                   Z -0.00000057  0.00000030  0.00000117 -0.00000065 -0.00000001
               TOTAL  0.00000167  0.00000147  0.00000129  0.00000074  0.00000083

   ROT. SAYVETZ    X -0.00001222  0.00002322  0.00000857  0.00002450  0.00000302
                   Y  0.00003151  0.00002359  0.00001806 -0.00000483 -0.00001135
                   Z  0.00001019 -0.00001688  0.00000055 -0.00003568 -0.00000071
               TOTAL  0.00003530  0.00003716  0.00002000  0.00004355  0.00001177

                           56          57          58          59          60
       FREQUENCY:      3704.05     3712.81     3736.28     3777.39     3780.00  
        SYMMETRY:         A           A           A           A           A   
    REDUCED MASS:      1.09133     1.10022     1.10602     1.11642     1.11674
    IR INTENSITY:      0.55013     0.10236     0.06842     0.00321     0.01482

  1   C            X  0.00006546 -0.00081809 -0.00021797  0.05089861  0.01835011
                   Y  0.00086572 -0.00077944 -0.00016497  0.03936434  0.01469725
                   Z -0.00022960  0.00165384  0.00032506 -0.06064678 -0.02165749
  2   C            X  0.00404250  0.00651537  0.00005616  0.00168020  0.00411639
                   Y -0.00019431 -0.00012623  0.00001361 -0.00107117  0.00046214
                   Z -0.00367402 -0.00573930 -0.00003643 -0.00150714 -0.00341724
  3   C            X -0.00016728 -0.00070290 -0.00015921 -0.01775523  0.04896106
                   Y -0.00005705  0.00068961  0.00001015  0.01516879 -0.04297583
                   Z  0.00056430  0.00158022  0.00029714  0.02185731 -0.05979700
  4   C            X  0.00069188  0.00221847  0.00035624 -0.00000420 -0.00028752
                   Y -0.00817569 -0.02579943 -0.00216097  0.00008196 -0.00071581
                   Z -0.00449055 -0.01241069 -0.00120033 -0.00009673 -0.00045888
  5   C            X  0.00678567  0.03095965  0.00213477  0.00019578  0.00028752
                   Y  0.00224589  0.00412804  0.00027224 -0.00009281  0.00005884
                   Z -0.01376076 -0.06565621 -0.00446679 -0.00040114 -0.00072320
  6   C            X -0.00307153  0.00322737  0.00166205 -0.00027585 -0.00017332
                   Y -0.01361012  0.03394365  0.00434324  0.00066413  0.00072205
                   Z  0.00872971 -0.01157186 -0.00295745 -0.00018767 -0.00034785
  7   C            X  0.01836537 -0.00261192 -0.00817513  0.00005033  0.00004255
                   Y -0.05926756  0.00387755  0.04608482  0.00061061  0.00045383
                   Z -0.02792224  0.00329768  0.01520410  0.00038082  0.00018671
  8   C            X -0.02902626  0.00763353 -0.05302887  0.00011567 -0.00000499
                   Y  0.00204113  0.00064228 -0.00997521 -0.00000897 -0.00014068
                   Z  0.02919334 -0.00754781  0.05173413  0.00000867  0.00011142
  9   C            X  0.00078338 -0.00085555  0.00061203 -0.00003700  0.00011816
                   Y -0.00094048 -0.00000762 -0.00211266 -0.00007630  0.00000838
                   Z -0.00095354  0.00083032 -0.00095083 -0.00005277  0.00016432
 10   O            X -0.00014539  0.00012056  0.00001756 -0.00000533  0.00001490
                   Y  0.00002589  0.00010207  0.00034848  0.00001518 -0.00001146
                   Z  0.00014535 -0.00010801  0.00004253 -0.00000251  0.00002379
 11   H            X -0.00349062  0.00487628  0.00136004 -0.31072632 -0.11294115
                   Y -0.00624110  0.00864740  0.00197648 -0.51662597 -0.18723516
                   Z  0.00210835 -0.00300884 -0.00070194  0.16523480  0.06022567
 12   H            X  0.00002835  0.00663005  0.00154517 -0.29317138 -0.10487574
                   Y -0.00004826 -0.00055750 -0.00008541  0.05909740  0.02126481
                   Z -0.00112018 -0.01307830 -0.00371299  0.55004528  0.19610497
 13   H            X -0.04361161 -0.06915400 -0.00029678 -0.02035842 -0.04674260
                   Y  0.00049840  0.00092111 -0.00009682  0.00408293 -0.00098684
                   Z  0.04334339  0.06892805  0.00041078  0.01947079  0.04371586
 14   H            X  0.00288671  0.00669306  0.00199270  0.11283666 -0.30915532
                   Y  0.00009240  0.00048160  0.00017274  0.01993809 -0.05474158
                   Z -0.00467761 -0.01204832 -0.00281926 -0.19062658  0.52021446
 15   H            X -0.00014443  0.00368609  0.00022852  0.09829078 -0.27296249
                   Y -0.00004390 -0.00826093 -0.00056456 -0.19881493  0.55024723
                   Z  0.00004060 -0.00302044 -0.00014607 -0.06668585  0.18521249
 16   H            X -0.00970149 -0.02837041 -0.00205467  0.00004442 -0.00071779
                   Y  0.08271849  0.24764962  0.01893225 -0.00181024  0.01101521
                   Z  0.05695660  0.16790959  0.01286190 -0.00118097  0.00776220
 17   H            X -0.08013702 -0.36415009 -0.02294438 -0.00209965 -0.00397283
                   Y -0.01145013 -0.04753277 -0.00332860 -0.00013382 -0.00058595
                   Z  0.15648503  0.70811149  0.04527303  0.00401256  0.00751519
 18   H            X  0.01703249 -0.03355503 -0.00565300 -0.00044439 -0.00063764
                   Y  0.16217370 -0.34235558 -0.04781905 -0.01059661 -0.00837502
                   Z -0.08050019  0.16363193  0.02376989  0.00540858  0.00423233
 19   H            X -0.20752841  0.01748200  0.13370657  0.00169457  0.00122321
                   Y  0.67242784 -0.05319904 -0.43806098 -0.00590166 -0.00390612
                   Z  0.31597032 -0.02578319 -0.20394302 -0.00236872 -0.00156543
 20   H            X  0.34520041 -0.08859782  0.56766776 -0.00115260  0.00027974
                   Y  0.01738988 -0.00469132  0.03100418 -0.00007203  0.00008740
                   Z -0.34156158  0.08793345 -0.56165159  0.00068821 -0.00053178

 TRANS. SAYVETZ    X -0.00000005 -0.00000067 -0.00000002  0.00000008  0.00000001
                   Y  0.00000129 -0.00000019  0.00000084  0.00000012 -0.00000003
                   Z -0.00000013 -0.00000061 -0.00000019  0.00000004  0.00000012
               TOTAL  0.00000130  0.00000092  0.00000086  0.00000015  0.00000012

   ROT. SAYVETZ    X  0.00001196  0.00000166 -0.00000750  0.00001998 -0.00001092
                   Y  0.00000819  0.00001570 -0.00000046 -0.00001619  0.00000322
                   Z -0.00002736  0.00001060  0.00000883 -0.00001727  0.00000738
               TOTAL  0.00003096  0.00001901  0.00001160  0.00003098  0.00001357

 REFERENCE ON SAYVETZ CONDITIONS - A. SAYVETZ, J.CHEM.PHYS., 7, 383-389(1939).

 NOTE - THE MODES J,K ARE ORTHONORMALIZED ACCORDING TO
 SUM ON I   M(I) * (X(I,J)*X(I,K) + Y(I,J)*Y(I,K) + Z(I,J)*Z(I,K)) = DELTA(J,K)

  MODE FREQ(CM**-1)  SYMMETRY  RED. MASS  IR INTENS.
     1    1060.402    A        9.324457    0.064307
     2       0.141    A        6.593817    0.000057
     3       0.038    A        6.689499    0.000000
     4       0.027    A        6.707977    0.000001
     5       1.791    A        4.863077    0.013403
     6       5.076    A        4.917487    0.003955
     7       6.458    A        4.645126    0.011071
     8     104.188    A        4.138229    0.029758
     9     203.675    A        3.551082    0.016635
    10     265.242    A        4.167037    0.030702
    11     381.404    A        5.277590    0.035433
    12     437.606    A        2.309047    0.075508
    13     465.596    A        3.411262    0.109550
    14     493.072    A        3.991674    0.077151
    15     506.425    A        4.788748    0.105068
    16     552.672    A        1.961689    0.248537
    17     575.843    A        2.545972    0.264888
    18     610.980    A        4.900757    0.016016
    19     677.211    A        5.711085    0.076522
    20     840.263    A        3.287019    0.033017
    21     851.576    A        4.187245    0.032930
    22     926.858    A        1.667093    2.620347
    23     938.109    A        1.761208    0.121386
    24     964.345    A        1.772373    0.902973
    25    1004.123    A        1.456872    0.150591
    26    1040.435    A        1.586844    0.061776
    27    1092.356    A        1.590392    0.228094
    28    1119.738    A        2.732641    0.001840
    29    1166.736    A        2.141442    0.057039
    30    1209.139    A        1.282483    0.003085
    31    1214.208    A        1.507786    0.090151
    32    1240.832    A        1.141227    0.082722
    33    1270.216    A        1.287336    0.408340
    34    1301.602    A        1.134646    0.247816
    35    1318.492    A        1.219187    0.093655
    36    1341.279    A        1.231598    0.051305
    37    1365.522    A        1.155978    0.010787
    38    1386.053    A        1.275962    0.048796
    39    1418.713    A        1.831364    0.674085
    40    1471.053    A        1.323699    0.088108
    41    1488.626    A        1.670822    0.001708
    42    1599.389    A        1.598242    0.164853
    43    1637.162    A        1.712716    0.166625
    44    1668.011    A        1.524677    0.029361
    45    1718.728    A        2.486197    0.476343
    46    1758.373    A        1.912261    0.035485
    47    1813.501    A        1.256196    0.224276
    48    1856.576    A        2.349709    0.040066
    49    2009.736    A        7.078557    0.062009
    50    2080.634    A       10.638366    1.818772
    51    3630.065    A        1.062666    0.098762
    52    3634.307    A        1.064620    0.072486
    53    3686.095    A        1.091014    0.193471
    54    3693.064    A        1.094114    0.045426
    55    3695.660    A        1.095900    0.141475
    56    3704.051    A        1.091328    0.550135
    57    3712.811    A        1.100223    0.102359
    58    3736.284    A        1.106024    0.068421
    59    3777.388    A        1.116417    0.003214
    60    3779.999    A        1.116743    0.014824

     -------------------------------
     THERMOCHEMISTRY AT T=  298.15 K
     -------------------------------

 USING IDEAL GAS, RIGID ROTOR, HARMONIC NORMAL MODE APPROXIMATIONS.
 P=  1.01325E+05 PASCAL.
 ALL FREQUENCIES ARE SCALED BY   1.00000
 THE MOMENTS OF INERTIA ARE (IN AMU*BOHR**2)
            852.39892          1312.41643          1651.72334
 THE ROTATIONAL SYMMETRY NUMBER IS  1.0
 THE ROTATIONAL CONSTANTS ARE (IN GHZ)
      2.11531     1.37387     1.09164
   1 IMAGINARY FREQUENCY VIBRATION(S) IS(ARE) EXCLUDED
     FROM THE FOLLOWING THERMOCHEMICAL ANALYSIS.
      8 -     60 VIBRATIONAL MODES ARE USED IN THERMOCHEMISTRY.
 THE HARMONIC ZERO POINT ENERGY IS (SCALED BY   1.000)
        0.192359 HARTREE/MOLECULE    42218.010409 CM**-1/MOLECULE 
      120.707470 KCAL/MOL              505.040055 KJ/MOL

               Q               LN Q
 ELEC.     1.00000E+00       0.000000
 TRANS.    6.10192E+07      17.926699
 ROT.      4.86595E+05      13.095187
 VIB.      1.44405E+01       2.670037
 TOT.      4.28762E+14      33.691922

              E         H         G         CV        CP        S
           KJ/MOL    KJ/MOL    KJ/MOL   J/MOL-K   J/MOL-K   J/MOL-K
 ELEC.      0.000     0.000     0.000     0.000     0.000     0.000
 TRANS.     3.718     6.197   -44.439    12.472    20.786   169.836
 ROT.       3.718     3.718   -32.462    12.472    12.472   121.350
 VIB.     516.151   516.151   498.421    93.000    93.000    59.465
 TOTAL    523.587   526.066   421.520   117.943   126.258   350.651
 VIB. THERMAL CORRECTION E(T)-E(0) = H(T)-H(0) =     11110.508 J/MOL

              E         H         G         CV        CP        S
         KCAL/MOL  KCAL/MOL  KCAL/MOL CAL/MOL-K CAL/MOL-K CAL/MOL-K
 ELEC.      0.000     0.000     0.000     0.000     0.000     0.000
 TRANS.     0.889     1.481   -10.621     2.981     4.968    40.592
 ROT.       0.889     0.889    -7.759     2.981     2.981    29.003
 VIB.     123.363   123.363   119.126    22.228    22.228    14.212
 TOTAL    125.140   125.733   100.746    28.189    30.176    83.808
 VIB. THERMAL CORRECTION E(T)-E(0) = H(T)-H(0) =      2655.475 CAL/MOL
 ......END OF NORMAL COORDINATE ANALYSIS......
 STEP CPU TIME =     0.01 TOTAL CPU TIME =         67.1 (      1.1 MIN)
 TOTAL WALL CLOCK TIME=         67.5 SECONDS, CPU UTILIZATION IS    99.45%
               580000  WORDS OF DYNAMIC MEMORY USED
 EXECUTION OF GAMESS TERMINATED NORMALLY Mon Nov 15 02:45:30 2021
 DDI: 263640 bytes (0.3 MB / 0 MWords) used by master data server.

 ----------------------------------------
 CPU timing information for all processes
 ========================================
 0: 66.548 + 0.607 = 67.156
 ----------------------------------------
 ddikick.x: exited gracefully.
----- accounting info -----
Files used on the master node chemcompute-node-0.novalocal were:
-rw-r--r--. 1 chemcomp chemcomp     1518 Nov 15 02:44 /scratch/306620/342634.F05
-rw-rw-r--. 1 chemcomp chemcomp 17821584 Nov 15 02:44 /scratch/306620/342634.F08
-rw-rw-r--. 1 chemcomp chemcomp 70451200 Nov 15 02:45 /scratch/306620/342634.F10
-rw-rw-r--. 1 chemcomp chemcomp   878880 Nov 15 02:45 /scratch/306620/342634.F18
Mon Nov 15 02:45:34 UTC 2021
0.143u 0.096s 1:11.59 0.3%	0+0k 8+216io 0pf+0w
Finishing Up...
Looking for IR data...
Looking for Raman data...
vibramans not found
Looking for thermodynamics data...
Looking for UV-Vis data...
306620
