----- GAMESS execution script 'rungms' -----
This job is running on host chemcompute-node-0.novalocal
under operating system Linux at Mon Nov 15 02:38:44 UTC 2021
SLURM has assigned the following compute nodes to this run:
chemcompute-node-0
Available scratch disk space (Kbyte units) at beginning of the job is
Filesystem     1K-blocks     Used Available Use% Mounted on
/dev/sda1       62903276 17613976  45289300  29% /
GAMESS temporary binary files will be written to /scratch/306619
GAMESS supplementary output files will be written to /data/slurm/342633
Copying input file 342633.inp to your run's scratch directory...
The generated host list is
chemcompute-node-0.novalocal

 Distributed Data Interface kickoff program.
 Initiating 1 compute processes on 1 nodes to run the following command:
 /data/gamess-2019R1-ddi/gamess.00.x 342633 

          ******************************************************
          *         GAMESS VERSION = 30 JUN 2019 (R1)          *
          *             FROM IOWA STATE UNIVERSITY             *
          * M.W.SCHMIDT, K.K.BALDRIDGE, J.A.BOATZ, S.T.ELBERT, *
          *   M.S.GORDON, J.H.JENSEN, S.KOSEKI, N.MATSUNAGA,   *
          *          K.A.NGUYEN, S.J.SU, T.L.WINDUS,           *
          *       TOGETHER WITH M.DUPUIS, J.A.MONTGOMERY       *
          *         J.COMPUT.CHEM.  14, 1347-1363(1993)        *
          **************** 64 BIT LINUX VERSION ****************

  SINCE 1993, STUDENTS AND POSTDOCS WORKING AT IOWA STATE UNIVERSITY
  AND ALSO IN THEIR VARIOUS JOBS AFTER LEAVING ISU HAVE MADE IMPORTANT
  CONTRIBUTIONS TO THE CODE:
     IVANA ADAMOVIC, CHRISTINE AIKENS, YURI ALEXEEV, POOJA ARORA,
     ANDREY ASADCHEV, ROB BELL, PRADIPTA BANDYOPADHYAY, JONATHAN BENTZ,
     COLLEEN BERTONI, BRETT BODE, KURT BRORSEN, CALEB CARLIN, GALINA CHABAN,
     WEI CHEN, CHEOL HO CHOI, PAUL DAY, ALBERT DEFUSCO, NUWAN DESILVA,
     TIM DUDLEY, DMITRI FEDOROV, ALEX FINDLATER, GRAHAM FLETCHER, 
     MARK FREITAG, KURT GLAESEMANN, ANASTASIA GUNINA,
     DAN KEMP, GRANT MERRILL, NORIYUKI MINEZAWA, JONATHAN MULLIN,
     TAKESHI NAGATA, SEAN NEDD, HEATHER NETZLOFF, BOSILJKA NJEGIC, RYAN OLSON,
     MIKE PAK, BUU PHAM,
     SPENCER PRUITT, LUKE ROSKOP, JIM SHOEMAKER, LYUDMILA SLIPCHENKO,
     TONY SMITH, SAROM SOK LEANG, JIE SONG, TETSUYA TAKETSUGU, SIMON WEBB,
     PENG XU, SOOHAENG YOO, FEDERICO ZAHARIEV

  ADDITIONAL CODE HAS BEEN PROVIDED BY COLLABORATORS IN OTHER GROUPS:
     IOWA STATE UNIVERSITY:
          JOE IVANIC, AARON WEST, LAIMUTIS BYTAUTAS, KLAUS RUEDENBERG
     UNIVERSITY OF TOKYO: KIMIHIKO HIRAO, TAKAHITO NAKAJIMA,
          TAKAO TSUNEDA, MUNEAKI KAMIYA, SUSUMU YANAGISAWA,
          KIYOSHI YAGI, MAHITO CHIBA, SEIKEN TOKURA, NAOAKI KAWAKAMI
     UNIVERSITY OF AARHUS: FRANK JENSEN
     UNIVERSITY OF IOWA: VISVALDAS KAIRYS, HUI LI
     NATIONAL INST. OF STANDARDS AND TECHNOLOGY: WALT STEVENS, DAVID GARMER
     UNIVERSITY OF PISA: BENEDETTA MENNUCCI, JACOPO TOMASI
     UNIVERSITY OF MEMPHIS: HENRY KURTZ, PRAKASHAN KORAMBATH
     UNIVERSITY OF ALBERTA: TOBY ZENG, MARIUSZ KLOBUKOWSKI
     UNIVERSITY OF NEW ENGLAND: MARK SPACKMAN
     MIE UNIVERSITY: HIROAKI UMEDA
     NAT. INST. OF ADVANCED INDUSTRIAL SCIENCE AND TECHNOLOGY: KAZUO KITAURA
     MICHIGAN STATE UNIVERSITY:
          KAROL KOWALSKI, MARTA WLOCH, JEFFREY GOUR, JESSE LUTZ,
          WEI LI, JUN SHEN, J. EMILIANO DEUSTUA, PIOTR PIECUCH
     UNIVERSITY OF MINNESOTA:
          YINAN SHU
     UNIVERSITY OF SILESIA: MONIKA MUSIAL, STANISLAW KUCHARSKI
     FACULTES UNIVERSITAIRES NOTRE-DAME DE LA PAIX:
          OLIVIER QUINET, BENOIT CHAMPAGNE
     UNIVERSITY OF CALIFORNIA - SANTA BARBARA: BERNARD KIRTMAN
     INSTITUTE FOR MOLECULAR SCIENCE:
          KAZUYA ISHIMURA, MICHIO KATOUDA, AND SHIGERU NAGASE
     UNIVERSITY OF NOTRE DAME: ANNA POMOGAEVA, DAN CHIPMAN
     KYUSHU UNIVERSITY:
          HARUYUKI NAKANO,
          FENG LONG GU, JACEK KORCHOWIEC, MARCIN MAKOWSKI, AND YURIKO AOKI,
          HIROTOSHI MORI AND EISAKU MIYOSHI
     PENNSYLVANIA STATE UNIVERSITY:
          TZVETELIN IORDANOV, CHET SWALINA, JONATHAN SKONE,
          SHARON HAMMES-SCHIFFER
     WASEDA UNIVERSITY:
          MASATO KOBAYASHI, TOMOKO AKAMA, TSUGUKI TOUMA,
          TAKESHI YOSHIKAWA, YASUHIRO IKABATA, JUNJI SEINO,
          YUYA NAKAJIMA, HIROMI NAKAI
     NANJING UNIVERSITY: SHUHUA LI
     UNIVERSITY OF NEBRASKA:
          PEIFENG SU, DEJUN SI, NANDUN THELLAMUREGE, YALI WANG, HUI LI
     UNIVERSITY OF ZURICH: ROBERTO PEVERATI, KIM BALDRIDGE
     N. COPERNICUS UNIVERSITY AND JACKSON STATE UNIVERSITY:
          MARIA BARYSZ
     UNIVERSITY OF COPENHAGEN: Jimmy Kromann, CASPER STEINMANN
     TOKYO INSTITUTE OF TECHNOLOGY: HIROYA NAKATA
     NAGOYA UNIVERSITY: YOSHIO NISHIMOTO, STEPHAN IRLE
     MOSCOW STATE UNIVERSITY: VLADIMIR MIRONOV
     A.N.NESMEYANOV INSTITUTE OF ORGANOELEMENT COMPOUNDS OF RUSSIAN ACADEMY OF SCIENCES:
          IGOR S. GERASIMOV

 EXECUTION OF GAMESS BEGUN Mon Nov 15 02:38:45 2021

            ECHO OF THE FIRST FEW INPUT CARDS -
 INPUT CARD>!   File created by the GAMESS Input Deck Generator Plugin for Avogadro         
 INPUT CARD> $BASIS GBASIS=STO NGAUSS=3 $END                                                
 INPUT CARD> $CONTRL SCFTYP=RHF RUNTYP=OPTIMIZE NZVAR=1 MULT=1 ICHARG=0 $END                
 INPUT CARD> $STATPT  HESS=calc ihrep=5 $END                                                
 INPUT CARD> $FORCE NVIB=2 $END                                                             
 INPUT CARD> $STATPT OPTTOL=0.0005 NSTEP=50 hssend=.t. $END                                 
 INPUT CARD> $ZMAT DLC=.T. AUTO=.T. NONVDW(1)=1,6,3,4 $END                                  
 INPUT CARD> $ZMAT IFZMAT(1)=1,1,6,1,3,4 fvalue(1)=2.00,2.00 $END                           
 INPUT CARD>                                                                                
 INPUT CARD> $DATA                                                                          
 INPUT CARD>Title                                                                           
 INPUT CARD>C1                                                                              
 INPUT CARD>C     6.0     2.82380    -1.75050     0.59999                                   
 INPUT CARD>C     6.0     2.16093    -0.62045     0.95530                                   
 INPUT CARD>C     6.0     2.84986     0.71351     0.86006                                   
 INPUT CARD>C     6.0     4.54747     0.51273     1.89503                                   
 INPUT CARD>C     6.0     4.40602    -0.83998     2.53606                                   
 INPUT CARD>C     6.0     4.49062    -1.90968     1.69853                                   
 INPUT CARD>C     6.0     5.61345    -1.85850     0.73155                                   
 INPUT CARD>C     6.0     6.16637    -0.71053     0.31368                                   
 INPUT CARD>C     6.0     5.63806     0.57417     0.84045                                   
 INPUT CARD>O     8.0     6.06130     1.63535     0.38637                                   
 INPUT CARD>H     1.0     2.32878    -2.71034     0.76731                                   
 INPUT CARD>H     1.0     3.46192    -1.67118    -0.28701                                   
 INPUT CARD>H     1.0     1.28637    -0.68718     1.59737                                   
 INPUT CARD>H     1.0     3.14103     1.01717    -0.14815                                   
 INPUT CARD>H     1.0     2.31912     1.50098     1.40164                                   
 INPUT CARD>H     1.0     4.58138     1.35449     2.59002                                   
 INPUT CARD>H     1.0     3.86508    -0.91600     3.47416                                   
 INPUT CARD>H     1.0     4.26241    -2.90341     2.10049                                   
 INPUT CARD>H     1.0     5.98847    -2.81299     0.37160                                   
 INPUT CARD>H     1.0     6.98151    -0.66370    -0.39541                                   
 INPUT CARD> $END                                                                           
    1000000 WORDS OF MEMORY AVAILABLE

     BASIS OPTIONS
     -------------
     GBASIS=STO          IGAUSS=       3      POLAR=NONE    
     NDFUNC=       0     NFFUNC=       0     DIFFSP=       F
     NPFUNC=       0      DIFFS=       F     BASNAM=        


     RUN TITLE
     ---------
 Title                                                                           

 THE POINT GROUP OF THE MOLECULE IS C1      
 THE ORDER OF THE PRINCIPAL AXIS IS     0

 ATOM      ATOMIC                      COORDINATES (BOHR)
           CHARGE         X                   Y                   Z
 C           6.0     5.3362082441       -3.3079653415        1.1338166954
 C           6.0     4.0835655786       -1.1724804891        1.8052552361
 C           6.0     5.3854545034        1.3483383895        1.6252777330
 C           6.0     8.5934722374        0.9689192057        3.5810874385
 C           6.0     8.3261704964       -1.5873320352        4.7924584884
 C           6.0     8.4860413150       -3.6087719242        3.2097562819
 C           6.0    10.6078823458       -3.5120557482        1.3824290463
 C           6.0    11.6527496389       -1.3427070061        0.5927692478
 C           6.0    10.6543885023        1.0850239704        1.5882202064
 O           8.0    11.4541961294        3.0903633940        0.7301334299
 H           1.0     4.4007560857       -5.1217999336        1.4500056476
 H           1.0     6.5420801914       -3.1580722762       -0.5423702557
 H           1.0     2.4308868188       -1.2985819042        3.0185916010
 H           1.0     5.9356860192        1.9221725829       -0.2799629051
 H           1.0     4.3825013326        2.8364409131        2.6487155334
 H           1.0     8.6575528456        2.5596149531        4.8944281027
 H           1.0     7.3039421206       -1.7309890048        6.5652104375
 H           1.0     8.0547869473       -5.4866493300        3.9693505399
 H           1.0    11.3165673857       -5.3157803062        0.7022221770
 H           1.0    13.1931408805       -1.2542111381       -0.7472165528

          INTERNUCLEAR DISTANCES (ANGS.)
          ------------------------------

                1 C          2 C          3 C          4 C          5 C     

   1 C       0.0000000    1.3574442 *  2.4778339 *  3.1257602    2.6609836 *
   2 C       1.3574442 *  0.0000000    1.5043751 *  2.8040618 *  2.7545280 *
   3 C       2.4778339 *  1.5043751 *  0.0000000    1.9983381 *  2.7647678 *
   4 C       3.1257602    2.8040618 *  1.9983381 *  0.0000000    1.5035797 *
   5 C       2.6609836 *  2.7545280 *  2.7647678 *  1.5035797 *  0.0000000  
   6 C       2.0026026 *  2.7644096 *  3.2056592    2.4310315 *  1.3612023 *
   7 C       2.7948379 *  3.6746056    3.7774568    2.8482856 *  2.3982340 *
   8 C       3.5123048    4.0575042    3.6504328    2.5725221 *  2.8380561 *
   9 C       3.6581376    3.6784155    2.7917485 *  1.5183216 *  2.5284058 *
  10 O       4.6894584    4.5414977    3.3745397    2.4141276 *  3.6726527  
  11 H       1.0928557 *  2.1050307 *  3.4645167    4.0721638    3.3078164  
  12 H       1.0955628 *  2.0832529 *  2.7160879 *  3.2724884    3.0906217  
  13 H       2.1187514 *  1.0869968 *  2.2248729 *  3.4875720    3.2613958  
  14 H       2.8845009 *  2.2045401 *  1.0924636 *  2.5312285 *  3.5005984  
  15 H       3.3866601    2.1736395 *  1.0932076 *  2.4870898 *  3.3349894  
  16 H       4.0853727    3.5258014    2.5301736 *  1.0921176 *  2.2021266 *
  17 H       3.1688338    3.0555086    3.2433768    2.2361970 *  1.0855537 *
  18 H       2.3770361 *  3.3075043    4.0762819    3.4341645    2.1137853 *
  19 H       3.3460698    4.4494943    4.7461214    3.9316324    3.3289343  
  20 H       4.4111799    5.0064238    4.5324876    3.5432547    3.9061157  

                6 C          7 C          8 C          9 C         10 O     

   1 C       2.0026026 *  2.7948379 *  3.5123048    3.6581376    4.6894584  
   2 C       2.7644096 *  3.6746056    4.0575042    3.6784155    4.5414977  
   3 C       3.2056592    3.7774568    3.6504328    2.7917485 *  3.3745397  
   4 C       2.4310315 *  2.8482856 *  2.5725221 *  1.5183216 *  2.4141276 *
   5 C       1.3612023 *  2.3982340 *  2.8380561 *  2.5284058 *  3.6726527  
   6 C       0.0000000    1.4827059 *  2.4827220 *  2.8674781 *  4.0934139  
   7 C       1.4827059 *  0.0000000    1.3409590 *  2.4352306 *  3.5393088  
   8 C       2.4827220 *  1.3409590 *  0.0000000    1.4856151 *  2.3493566 *
   9 C       2.8674781 *  2.4352306 *  1.4856151 *  0.0000000    1.2293997 *
  10 O       4.0934139    3.5393088    2.3493566 *  1.2293997 *  0.0000000  
  11 H       2.4863184 *  3.3935184    4.3511053    4.6631201    5.7412405  
  12 H       2.2488831 *  2.3878096 *  2.9321880 *  3.3239055    4.2595020  
  13 H       3.4310287    4.5656605    5.0460683    4.5935975    5.4461567  
  14 H       3.7145755    3.8930978    3.5143871    2.7218997 *  3.0324635  
  15 H       4.0541531    4.7526557    4.5690005    3.4913140    3.8797860  
  16 H       3.3849369    3.8525815    3.4580666    2.1877996 *  2.6692918 *
  17 H       2.1287466 *  3.3862979    3.9149441    3.5072059    4.5680648  
  18 H       1.0959703 *  2.1888679 *  3.4097619    3.9463498    5.1744135  
  19 H       2.1955106 *  1.0868556 *  2.1107679 *  3.4373624    4.4489607  
  20 H       3.4844776    2.1375626 *  1.0814134 *  2.2055679 *  2.5968437 *

               11 H         12 H         13 H         14 H         15 H     

   1 C       1.0928557 *  1.0955628 *  2.1187514 *  2.8845009 *  3.3866601  
   2 C       2.1050307 *  2.0832529 *  1.0869968 *  2.2045401 *  2.1736395 *
   3 C       3.4645167    2.7160879 *  2.2248729 *  1.0924636 *  1.0932076 *
   4 C       4.0721638    3.2724884    3.4875720    2.5312285 *  2.4870898 *
   5 C       3.3078164    3.0906217    3.2613958    3.5005984    3.3349894  
   6 C       2.4863184 *  2.2488831 *  3.4310287    3.7145755    4.0541531  
   7 C       3.3935184    2.3878096 *  4.5656605    3.8930978    4.7526557  
   8 C       4.3511053    2.9321880 *  5.0460683    3.5143871    4.5690005  
   9 C       4.6631201    3.3239055    4.5935975    2.7218997 *  3.4913140  
  10 O       5.7412405    4.2595020    5.4461567    3.0324635    3.8797860  
  11 H       0.0000000    1.8642560 *  2.4225595 *  3.9232828    4.2588360  
  12 H       1.8642560 *  0.0000000    3.0417366    2.7109921 *  3.7709587  
  13 H       2.4225595 *  3.0417366    0.0000000    3.0645412    2.4275352 *
  14 H       3.9232828    2.7109921 *  3.0645412    0.0000000    1.8197410 *
  15 H       4.2588360    3.7709587    2.4275352 *  1.8197410 *  0.0000000  
  16 H       4.9919256    4.3226348    4.0013574    3.1122288    2.5595950 *
  17 H       3.5926189    3.8573611    3.1975685    4.1692355    3.5393677  
  18 H       2.3566013 *  2.8034499 *  3.7445453    4.6566965    4.8645060  
  19 H       3.6824522    2.8497284 *  5.3038971    4.8008520    5.7563399  
  20 H       5.2142640    3.6625511    6.0337669    4.1994938    5.4454668  

               16 H         17 H         18 H         19 H         20 H     

   1 C       4.0853727    3.1688338    2.3770361 *  3.3460698    4.4111799  
   2 C       3.5258014    3.0555086    3.3075043    4.4494943    5.0064238  
   3 C       2.5301736 *  3.2433768    4.0762819    4.7461214    4.5324876  
   4 C       1.0921176 *  2.2361970 *  3.4341645    3.9316324    3.5432547  
   5 C       2.2021266 *  1.0855537 *  2.1137853 *  3.3289343    3.9061157  
   6 C       3.3849369    2.1287466 *  1.0959703 *  2.1955106 *  3.4844776  
   7 C       3.8525815    3.3862979    2.1888679 *  1.0868556 *  2.1375626 *
   8 C       3.4580666    3.9149441    3.4097619    2.1107679 *  1.0814134 *
   9 C       2.1877996 *  3.5072059    3.9463498    3.4373624    2.2055679 *
  10 O       2.6692918 *  4.5680648    5.1744135    4.4489607    2.5968437 *
  11 H       4.9919256    3.5926189    2.3566013 *  3.6824522    5.2142640  
  12 H       4.3226348    3.8573611    2.8034499 *  2.8497284 *  3.6625511  
  13 H       4.0013574    3.1975685    3.7445453    5.3038971    6.0337669  
  14 H       3.1122288    4.1692355    4.6566965    4.8008520    4.1994938  
  15 H       2.5595950 *  3.5393677    4.8645060    5.7563399    5.4454668  
  16 H       0.0000000    2.5396681 *  4.2978011    4.9263759    4.3297237  
  17 H       2.5396681 *  0.0000000    2.4483952 *  4.2110847    4.9748732  
  18 H       4.2978011    2.4483952 *  0.0000000    2.4446921 *  4.3173282  
  19 H       4.9263759    4.2110847    2.4446921 *  0.0000000    2.4887507 *
  20 H       4.3297237    4.9748732    4.3173282    2.4887507 *  0.0000000  

  * ... LESS THAN  3.000


     ATOMIC BASIS SET
     ----------------
 THE CONTRACTED PRIMITIVE FUNCTIONS HAVE BEEN UNNORMALIZED
 THE CONTRACTED BASIS FUNCTIONS ARE NOW NORMALIZED TO UNITY

  SHELL TYPE  PRIMITIVE        EXPONENT          CONTRACTION COEFFICIENT(S)

 C         

      1   S       1            71.6168373    0.154328967295
      1   S       2            13.0450963    0.535328142282
      1   S       3             3.5305122    0.444634542185

      2   L       4             2.9412494   -0.099967229187    0.155916274999
      2   L       5             0.6834831    0.399512826089    0.607683718598
      2   L       6             0.2222899    0.700115468880    0.391957393099

 C         

      3   S       7            71.6168373    0.154328967295
      3   S       8            13.0450963    0.535328142282
      3   S       9             3.5305122    0.444634542185

      4   L      10             2.9412494   -0.099967229187    0.155916274999
      4   L      11             0.6834831    0.399512826089    0.607683718598
      4   L      12             0.2222899    0.700115468880    0.391957393099

 C         

      5   S      13            71.6168373    0.154328967295
      5   S      14            13.0450963    0.535328142282
      5   S      15             3.5305122    0.444634542185

      6   L      16             2.9412494   -0.099967229187    0.155916274999
      6   L      17             0.6834831    0.399512826089    0.607683718598
      6   L      18             0.2222899    0.700115468880    0.391957393099

 C         

      7   S      19            71.6168373    0.154328967295
      7   S      20            13.0450963    0.535328142282
      7   S      21             3.5305122    0.444634542185

      8   L      22             2.9412494   -0.099967229187    0.155916274999
      8   L      23             0.6834831    0.399512826089    0.607683718598
      8   L      24             0.2222899    0.700115468880    0.391957393099

 C         

      9   S      25            71.6168373    0.154328967295
      9   S      26            13.0450963    0.535328142282
      9   S      27             3.5305122    0.444634542185

     10   L      28             2.9412494   -0.099967229187    0.155916274999
     10   L      29             0.6834831    0.399512826089    0.607683718598
     10   L      30             0.2222899    0.700115468880    0.391957393099

 C         

     11   S      31            71.6168373    0.154328967295
     11   S      32            13.0450963    0.535328142282
     11   S      33             3.5305122    0.444634542185

     12   L      34             2.9412494   -0.099967229187    0.155916274999
     12   L      35             0.6834831    0.399512826089    0.607683718598
     12   L      36             0.2222899    0.700115468880    0.391957393099

 C         

     13   S      37            71.6168373    0.154328967295
     13   S      38            13.0450963    0.535328142282
     13   S      39             3.5305122    0.444634542185

     14   L      40             2.9412494   -0.099967229187    0.155916274999
     14   L      41             0.6834831    0.399512826089    0.607683718598
     14   L      42             0.2222899    0.700115468880    0.391957393099

 C         

     15   S      43            71.6168373    0.154328967295
     15   S      44            13.0450963    0.535328142282
     15   S      45             3.5305122    0.444634542185

     16   L      46             2.9412494   -0.099967229187    0.155916274999
     16   L      47             0.6834831    0.399512826089    0.607683718598
     16   L      48             0.2222899    0.700115468880    0.391957393099

 C         

     17   S      49            71.6168373    0.154328967295
     17   S      50            13.0450963    0.535328142282
     17   S      51             3.5305122    0.444634542185

     18   L      52             2.9412494   -0.099967229187    0.155916274999
     18   L      53             0.6834831    0.399512826089    0.607683718598
     18   L      54             0.2222899    0.700115468880    0.391957393099

 O         

     19   S      55           130.7093214    0.154328967295
     19   S      56            23.8088661    0.535328142282
     19   S      57             6.4436083    0.444634542185

     20   L      58             5.0331513   -0.099967229187    0.155916274999
     20   L      59             1.1695961    0.399512826089    0.607683718598
     20   L      60             0.3803890    0.700115468880    0.391957393099

 H         

     21   S      61             3.4252509    0.154328967295
     21   S      62             0.6239137    0.535328142282
     21   S      63             0.1688554    0.444634542185

 H         

     22   S      64             3.4252509    0.154328967295
     22   S      65             0.6239137    0.535328142282
     22   S      66             0.1688554    0.444634542185

 H         

     23   S      67             3.4252509    0.154328967295
     23   S      68             0.6239137    0.535328142282
     23   S      69             0.1688554    0.444634542185

 H         

     24   S      70             3.4252509    0.154328967295
     24   S      71             0.6239137    0.535328142282
     24   S      72             0.1688554    0.444634542185

 H         

     25   S      73             3.4252509    0.154328967295
     25   S      74             0.6239137    0.535328142282
     25   S      75             0.1688554    0.444634542185

 H         

     26   S      76             3.4252509    0.154328967295
     26   S      77             0.6239137    0.535328142282
     26   S      78             0.1688554    0.444634542185

 H         

     27   S      79             3.4252509    0.154328967295
     27   S      80             0.6239137    0.535328142282
     27   S      81             0.1688554    0.444634542185

 H         

     28   S      82             3.4252509    0.154328967295
     28   S      83             0.6239137    0.535328142282
     28   S      84             0.1688554    0.444634542185

 H         

     29   S      85             3.4252509    0.154328967295
     29   S      86             0.6239137    0.535328142282
     29   S      87             0.1688554    0.444634542185

 H         

     30   S      88             3.4252509    0.154328967295
     30   S      89             0.6239137    0.535328142282
     30   S      90             0.1688554    0.444634542185

 TOTAL NUMBER OF BASIS SET SHELLS             =   30
 NUMBER OF CARTESIAN GAUSSIAN BASIS FUNCTIONS =   60
 NUMBER OF ELECTRONS                          =   72
 CHARGE OF MOLECULE                           =    0
 SPIN MULTIPLICITY                            =    1
 NUMBER OF OCCUPIED ORBITALS (ALPHA)          =   36
 NUMBER OF OCCUPIED ORBITALS (BETA )          =   36
 TOTAL NUMBER OF ATOMS                        =   20
 THE NUCLEAR REPULSION ENERGY IS      505.3421476606

     $CONTRL OPTIONS
     ---------------
 SCFTYP=RHF          RUNTYP=OPTIMIZE     EXETYP=RUN     
 MPLEVL=       0     CITYP =NONE         CCTYP =NONE         VBTYP =NONE    
 DFTTYP=NONE         TDDFT =NONE    
 MULT  =       1     ICHARG=       0     NZVAR =       1     COORD =UNIQUE  
 PP    =NONE         RELWFN=NONE         LOCAL =NONE         NUMGRD=       F
 ISPHER=      -1     NOSYM =       0     MAXIT =      30     UNITS =ANGS    
 PLTORB=       F     MOLPLT=       F     AIMPAC=       F     FRIEND=        
 NPRINT=       7     IREST =       0     GEOM  =INPUT   
 NORMF =       0     NORMP =       0     ITOL  =      20     ICUT  =       9
 INTTYP=BEST         GRDTYP=BEST         QMTTOL= 1.0E-06

     $SYSTEM OPTIONS
     ---------------
  REPLICATED MEMORY=     1000000 WORDS (ON EVERY NODE).
 DISTRIBUTED MEMDDI=           0 MILLION WORDS IN AGGREGATE,
 MEMDDI DISTRIBUTED OVER   1 PROCESSORS IS           0 WORDS/PROCESSOR.
 TOTAL MEMORY REQUESTED ON EACH PROCESSOR=     1000000 WORDS.
 TIMLIM=      525600.00 MINUTES, OR     365.0 DAYS.
 PARALL= F  BALTYP=  DLB     KDIAG=    0  COREFL= F
 MXSEQ2=     300 MXSEQ3=     150  mem10=         0

          ----------------
          PROPERTIES INPUT
          ----------------

     MOMENTS            FIELD           POTENTIAL          DENSITY
 IEMOM =       1   IEFLD =       0   IEPOT =       0   IEDEN =       0
 WHERE =COMASS     WHERE =NUCLEI     WHERE =NUCLEI     WHERE =NUCLEI  
 OUTPUT=BOTH       OUTPUT=BOTH       OUTPUT=BOTH       OUTPUT=BOTH    
 IEMINT=       0   IEFINT=       0                     IEDINT=       0
                                                       MORB  =       0
          EXTRAPOLATION IN EFFECT
          SOSCF IN EFFECT
 ORBITAL PRINTING OPTION: NPREO=     1    60     2     1

     -------------------------------
     INTEGRAL TRANSFORMATION OPTIONS
     -------------------------------
     NWORD  =            0
     CUTOFF = 1.0E-09     MPTRAN =       0
     DIRTRF =       F     AOINTS =DUP     

          ----------------------
          INTEGRAL INPUT OPTIONS
          ----------------------
 NOPK  =       1 NORDER=       0 SCHWRZ=       T


 -----------------------------------------------
  STATISTICS ON AUTOMATIC COORDINATE GENERATION 
 -----------------------------------------------
  NUMBER OF USER SPECIFIED BONDS                             2
  NUMBER OF BONDS                                           21
  NUMBER OF ANGLES                                          39
  NUMBER OF TORSIONS                                        62
  NUMBER OF EXTRA COORD.                                     0
  NUMBER OF EXTRA COORD. FOR CONSTRAINTS                     0
  NUMBER OF CONSTRAINED COORD.                               2

  TOTAL NUMBER OF PRIMITIVES                               122
 -----------------------------------------------

   --- ENCODED Z MATRIX ---
 COORD  TYPE   I   J   K   L   M   N
    1      1    1   6
    2      1    3   4
    3      1    1   2
    4      1    1  12
    5      1    1  11
    6      1    2  13
    7      1    2   3
    8      1    3  14
    9      1    3  15
   10      1    4   9
   11      1    4   5
   12      1    4  16
   13      1    5   6
   14      1    5  17
   15      1    6   7
   16      1    6  18
   17      1    7   8
   18      1    7  19
   19      1    8  20
   20      1    8   9
   21      1    9  10
   22      2    1   2  13
   23      2    1   6   7
   24      2    1   6   5
   25      2    1   6  18
   26      2    1   2   3
   27      2    2   1  12
   28      2    2   1  11
   29      2    2   3  15
   30      2    2   3   4
   31      2    2   1   6
   32      2    2   3  14
   33      2    3   2  13
   34      2    3   4  16
   35      2    3   4   5
   36      2    3   4   9
   37      2    4   5  17
   38      2    4   5   6
   39      2    4   9  10
   40      2    4   9   8
   41      2    4   3  15
   42      2    4   3  14
   43      2    5   6   7
   44      2    5   4  16
   45      2    5   4   9
   46      2    5   6  18
   47      2    6   5  17
   48      2    6   1  12
   49      2    6   1  11
   50      2    6   7  19
   51      2    6   7   8
   52      2    7   8  20
   53      2    7   8   9
   54      2    7   6  18
   55      2    8   9  10
   56      2    8   7  19
   57      2    9   4  16
   58      2    9   8  20
   59      2   11   1  12
   60      2   14   3  15
   61      3    1   6   5  17
   62      3    1   6   5   4
   63      3    1   2   3  15
   64      3    1   2   3   4
   65      3    1   2   3  14
   66      3    1   6   7   8
   67      3    1   6   7  19
   68      3    2   3   4   9
   69      3    2   1   6  18
   70      3    2   1   6   5
   71      3    2   1   6   7
   72      3    2   3   4  16
   73      3    2   3   4   5
   74      3    3   4   9  10
   75      3    3   4   9   8
   76      3    3   4   5  17
   77      3    3   4   5   6
   78      3    3   2   1  11
   79      3    3   2   1   6
   80      3    3   2   1  12
   81      3    4   3   2  13
   82      3    4   9   8  20
   83      3    4   9   8   7
   84      3    4   5   6  18
   85      3    4   5   6   7
   86      3    5   4   3  15
   87      3    5   4   3  14
   88      3    5   6   1  11
   89      3    5   6   7  19
   90      3    5   6   7   8
   91      3    5   6   1  12
   92      3    5   4   9   8
   93      3    5   4   9  10
   94      3    6   5   4  16
   95      3    6   5   4   9
   96      3    6   7   8   9
   97      3    6   7   8  20
   98      3    6   1   2  13
   99      3    7   8   9  10
  100      3    7   6   1  11
  101      3    7   6   1  12
  102      3    7   6   5  17
  103      3    8   7   6  18
  104      3    8   9   4  16
  105      3    9   4   5  17
  106      3    9   8   7  19
  107      3    9   4   3  15
  108      3    9   4   3  14
  109      3   10   9   8  20
  110      3   10   9   4  16
  111      3   11   1   2  13
  112      3   11   1   6  18
  113      3   12   1   6  18
  114      3   12   1   2  13
  115      3   13   2   3  15
  116      3   13   2   3  14
  117      3   14   3   4  16
  118      3   15   3   4  16
  119      3   16   4   5  17
  120      3   17   5   6  18
  121      3   18   6   7  19
  122      3   19   7   8  20

          INDEP./SYM. INTERNAL COORDINATES
          --------------------------------
 CRD  1=   1.0000 (  1)
 CRD  2=   1.0000 (  2)
 CRD  3=   0.1198 (  5) -0.1206 (  9) -0.2844 ( 10)  0.2870 ( 15)  0.2391 ( 17)
          -0.1615 ( 20)  0.1190 ( 24) -0.1358 ( 25)  0.1447 ( 30) -0.1235 ( 31)
           0.1432 ( 34) -0.1317 ( 35) -0.1474 ( 39) -0.1316 ( 41) -0.1566 ( 43)
           0.1623 ( 45)  0.1512 ( 49)  0.1017 ( 50)  0.1782 ( 52)  0.1508 ( 54)
           0.1364 ( 55) -0.1453 ( 57) -0.1819 ( 58) -0.1118 ( 61) -0.1105 ( 62)
           0.1838 ( 68)  0.1632 ( 71) -0.1130 ( 76) -0.1077 ( 77) -0.1044 ( 79)
           0.1286 (100)  0.1327 (101)  0.1340 (107)  0.1155 (108)
 CRD  4=  -0.1979 (  3)  0.1176 (  6) -0.1611 (  7)  0.1583 ( 10)  0.1162 ( 15)
          -0.1847 ( 17) -0.2381 ( 20)  0.1576 ( 22) -0.3487 ( 26) -0.1060 ( 29)
           0.2485 ( 30)  0.2157 ( 31)  0.1903 ( 33)  0.1246 ( 37) -0.2224 ( 38)
           0.1412 ( 39) -0.1344 ( 42) -0.1239 ( 48)  0.1340 ( 51) -0.2100 ( 55)
          -0.1612 ( 56) -0.1055 ( 98) -0.1128 (101)
 CRD  5=   0.2091 (  3) -0.1673 (  7) -0.1158 (  8) -0.1281 ( 11)  0.1450 ( 13)
          -0.1062 ( 17)  0.1193 ( 25) -0.1246 ( 28)  0.1151 ( 29) -0.1072 ( 34)
          -0.1447 ( 41) -0.1068 ( 42)  0.1139 ( 47)  0.1208 ( 48)  0.1944 ( 49)
           0.1328 ( 63) -0.1791 ( 66) -0.1449 ( 67) -0.1553 ( 74) -0.1929 ( 75)
           0.1747 ( 78)  0.1310 ( 82)  0.1423 ( 83)  0.1109 ( 85) -0.1786 ( 89)
          -0.2128 ( 90) -0.2058 ( 92) -0.1681 ( 93)  0.1074 ( 97)  0.1078 ( 99)
           0.1764 (111)  0.1608 (115) -0.1049 (119) -0.1101 (120)
 CRD  6=  -0.3005 (  3) -0.1442 (  5) -0.3280 (  7) -0.1510 (  9) -0.2899 ( 10)
          -0.1129 ( 11) -0.1056 ( 12) -0.1324 ( 13) -0.2607 ( 15) -0.1255 ( 17)
          -0.1938 ( 39) -0.1721 ( 41)  0.1541 ( 42)  0.1662 ( 48) -0.1731 ( 49)
          -0.1332 ( 50)  0.1740 ( 55)  0.1018 ( 56) -0.1819 ( 64)  0.1793 ( 79)
          -0.1766 ( 81)  0.1834 ( 98)
 CRD  7=  -0.1166 (  3) -0.1196 ( 11)  0.1877 ( 17)  0.2023 ( 19)  0.4336 ( 20)
          -0.1380 ( 28) -0.1162 ( 29) -0.3821 ( 39)  0.1298 ( 41) -0.1118 ( 48)
           0.1056 ( 49) -0.1612 ( 50) -0.1825 ( 53)  0.3600 ( 55)  0.1255 ( 56)
           0.2608 ( 58)  0.1073 ( 64) -0.1018 ( 98)
 CRD  8=   0.1312 ( 10)  0.2459 ( 11) -0.3129 ( 13) -0.2289 ( 15)  0.1380 ( 17)
          -0.1321 ( 18)  0.1894 ( 21)  0.1577 ( 22) -0.1447 ( 33)  0.3218 ( 37)
           0.1103 ( 39) -0.1743 ( 40) -0.1087 ( 42) -0.3471 ( 47) -0.2756 ( 50)
           0.1423 ( 51)  0.1332 ( 56)  0.1144 ( 68) -0.1173 ( 89) -0.1065 ( 90)
           0.1354 (102)
 CRD  9=  -0.1427 (  3) -0.1772 (  7) -0.1117 (  8)  0.3068 ( 10) -0.1219 ( 13)
           0.2955 ( 15)  0.2345 ( 17)  0.2139 ( 19) -0.1199 ( 24)  0.1066 ( 32)
          -0.1369 ( 34) -0.1004 ( 41) -0.1228 ( 42) -0.1079 ( 48)  0.1399 ( 52)
          -0.1221 ( 53) -0.1293 ( 55) -0.1492 ( 61) -0.1298 ( 62)  0.1212 ( 63)
           0.1817 ( 76)  0.1517 ( 77)  0.1054 ( 80) -0.1254 ( 85) -0.1290 ( 93)
           0.1529 ( 95) -0.1448 (102)  0.1829 (105)  0.1338 (114) -0.1211 (116)
 CRD 10=  -0.1010 (  3) -0.1123 (  7)  0.3314 ( 17)  0.1246 ( 18) -0.1859 ( 20)
          -0.1275 ( 28) -0.2444 ( 50) -0.1242 ( 51)  0.4036 ( 52) -0.1708 ( 55)
           0.3686 ( 56) -0.4036 ( 58)  0.1061 ( 62)
 CRD 11=   0.1693 (  6)  0.4730 (  7)  0.1986 ( 11)  0.1091 ( 14)  0.1013 ( 17)
           0.1206 ( 19) -0.2297 ( 22) -0.1317 ( 26)  0.2179 ( 29)  0.3581 ( 33)
           0.1224 ( 37) -0.1643 ( 39) -0.1796 ( 41) -0.1669 ( 50)  0.1158 ( 52)
          -0.1260 ( 53)  0.1293 ( 63)  0.1367 ( 86)  0.1783 (107)
 CRD 12=   0.2388 (  3)  0.1202 (  4) -0.1227 (  7)  0.1820 ( 10)  0.2110 ( 11)
           0.1188 ( 12)  0.2888 ( 13)  0.2977 ( 14)  0.1057 ( 15)  0.1626 ( 17)
           0.1855 ( 19)  0.1017 ( 20)  0.2182 ( 22)  0.1679 ( 28) -0.1175 ( 31)
          -0.1526 ( 32) -0.2418 ( 33) -0.1615 ( 38)  0.2038 ( 42)  0.1158 ( 47)
           0.2108 ( 48) -0.1068 ( 49) -0.1454 ( 50) -0.1183 ( 53) -0.1051 ( 63)
          -0.1336 ( 64)  0.1219 ( 79)  0.1402 ( 98)  0.1041 (116)
 CRD 13=   0.4020 (  3)  0.2103 (  6) -0.1036 (  8) -0.2054 ( 11) -0.1485 ( 14)
          -0.1781 ( 15)  0.3024 ( 22) -0.1579 ( 26)  0.1491 ( 28) -0.1581 ( 33)
          -0.1504 ( 37) -0.1788 ( 42)  0.1082 ( 46)  0.1117 ( 47) -0.1711 ( 48)
          -0.1556 ( 49) -0.1747 ( 50)  0.1335 ( 56) -0.1916 ( 78)  0.1037 ( 81)
          -0.1348 ( 88) -0.1365 (100) -0.1160 (111)  0.1350 (114)
 CRD 14=  -0.3084 ( 11) -0.1351 ( 12) -0.2950 ( 13) -0.1729 ( 16) -0.1248 ( 17)
          -0.2223 ( 18)  0.2134 ( 19) -0.1523 ( 20) -0.2214 ( 21)  0.1329 ( 24)
          -0.1203 ( 30) -0.1196 ( 31)  0.1285 ( 35)  0.1578 ( 40) -0.1504 ( 44)
          -0.1534 ( 46)  0.1173 ( 48)  0.1647 ( 51)  0.1486 ( 52) -0.3042 ( 53)
          -0.1228 ( 55) -0.1007 ( 56)  0.1558 ( 58)
 CRD 15=   0.1454 (  3)  0.1182 (  4) -0.1225 (  7)  0.1374 (  9) -0.1331 ( 10)
           0.1782 ( 11) -0.2020 ( 12) -0.2092 ( 13)  0.1476 ( 15)  0.1566 ( 16)
          -0.1063 ( 20)  0.1806 ( 27) -0.1989 ( 32) -0.1076 ( 39)  0.1418 ( 42)
          -0.1742 ( 48)  0.1147 ( 50)  0.1495 ( 54)  0.1437 ( 55) -0.1723 ( 56)
          -0.1576 ( 57)  0.1054 ( 64)  0.1876 ( 65) -0.1345 ( 69) -0.1026 ( 70)
          -0.1539 ( 72) -0.1374 ( 73)  0.1058 ( 76)  0.2134 ( 80)  0.1026 ( 81)
           0.1219 (101)  0.1228 (108)  0.2093 (114)  0.1848 (116)  0.1106 (119)
 CRD 16=  -0.1158 (  8)  0.3241 ( 12) -0.2844 ( 16)  0.1312 ( 18) -0.2346 ( 21)
           0.1465 ( 27)  0.1002 ( 29) -0.1565 ( 32)  0.2298 ( 37)  0.1711 ( 40)
          -0.1293 ( 41)  0.1027 ( 43)  0.1769 ( 44) -0.1559 ( 45) -0.1046 ( 46)
          -0.2609 ( 47) -0.1012 ( 48)  0.1389 ( 49) -0.1062 ( 51)  0.1274 ( 66)
           0.1063 ( 67) -0.1404 ( 68) -0.1054 ( 71) -0.1002 ( 72)  0.1467 ( 75)
           0.1429 ( 86)  0.1640 ( 87)  0.1432 ( 91)  0.1404 (104)  0.1137 (105)
 CRD 17=   0.1062 (  3)  0.1768 (  4) -0.1296 (  5)  0.3433 (  6)  0.1152 (  8)
          -0.1190 (  9) -0.1304 ( 13) -0.1691 ( 16)  0.3015 ( 18) -0.1646 ( 19)
           0.2278 ( 21) -0.1520 ( 26) -0.1153 ( 40) -0.1004 ( 41)  0.1067 ( 43)
          -0.1275 ( 46)  0.1145 ( 48)  0.1009 ( 50) -0.1441 ( 51)  0.1203 ( 53)
           0.1101 ( 65)  0.1172 ( 68) -0.1721 ( 69) -0.1715 ( 71)  0.1158 ( 72)
          -0.1267 ( 80) -0.1092 ( 83) -0.1155 ( 99)  0.1056 (106)
 CRD 18=   0.1346 (  9)  0.1375 ( 12)  0.1034 ( 15) -0.1226 ( 16)  0.1432 ( 18)
          -0.1394 ( 25)  0.1391 ( 28) -0.1188 ( 29)  0.1016 ( 34)  0.2173 ( 41)
          -0.1549 ( 42)  0.1508 ( 48) -0.2126 ( 49) -0.2010 ( 63) -0.1146 ( 65)
          -0.2223 ( 78) -0.1351 ( 80)  0.1105 ( 83)  0.1426 ( 84) -0.1240 ( 90)
          -0.1414 ( 92) -0.1159 ( 93) -0.1469 (103) -0.1629 (104) -0.1375 (110)
          -0.2103 (111) -0.1230 (114) -0.2159 (115) -0.1295 (116) -0.1066 (118)
           0.1165 (119)  0.1474 (120) -0.1225 (121)
 CRD 19=   0.1257 (  5) -0.1541 (  6) -0.3821 ( 12)  0.3433 ( 14) -0.4510 ( 16)
           0.1694 ( 18) -0.1422 ( 19)  0.1523 ( 21) -0.1546 ( 38)  0.1207 ( 66)
           0.1212 ( 70)  0.1261 ( 91) -0.1283 ( 96) -0.1157 ( 97) -0.1025 (106)
 CRD 20=  -0.1540 (  4)  0.3000 (  8) -0.1525 (  9)  0.2767 ( 12) -0.1786 ( 16)
          -0.1302 ( 25)  0.1161 ( 34) -0.1140 ( 36)  0.2335 ( 42) -0.1060 ( 44)
          -0.2052 ( 48)  0.2075 ( 65)  0.1176 ( 72) -0.1193 ( 75)  0.1806 ( 80)
           0.1160 ( 82)  0.1260 ( 83)  0.1192 ( 84) -0.1141 ( 90) -0.1430 ( 92)
          -0.1132 ( 93) -0.1744 (103) -0.2203 (104) -0.1905 (110)  0.1949 (114)
           0.1932 (116) -0.1477 (121)
 CRD 21=   0.3429 (  4) -0.2270 (  5)  0.3035 (  6)  0.1810 (  8) -0.1964 (  9)
           0.1287 ( 16)  0.1458 ( 27) -0.1073 ( 28)  0.1397 ( 32) -0.1113 ( 34)
           0.1306 ( 62) -0.1057 ( 69) -0.1244 ( 77)  0.1268 ( 83)  0.1831 ( 84)
           0.1179 ( 85)  0.1084 ( 91) -0.2152 ( 94) -0.1512 ( 95) -0.1728 ( 96)
          -0.1403 ( 97)  0.1337 ( 99)  0.1055 (100)  0.1303 (101) -0.1591 (106)
           0.1031 (109) -0.1483 (119)  0.1143 (120) -0.1267 (122)
 CRD 22=   0.2066 (  4)  0.2897 (  6)  0.1466 (  8)  0.2667 ( 14) -0.1224 ( 16)
          -0.1411 ( 28) -0.1448 ( 29)  0.2178 ( 41)  0.2040 ( 49) -0.1251 ( 62)
          -0.2685 ( 63) -0.1056 ( 64) -0.1612 ( 65)  0.1250 ( 77)  0.2370 ( 78)
           0.1857 ( 80) -0.1056 ( 85)  0.1431 ( 94)  0.1279 ( 95)  0.1538 (111)
           0.1153 (112)  0.1042 (113)  0.1024 (114) -0.1896 (115)  0.1028 (119)
 CRD 23=  -0.4852 (  4) -0.7077 (  5)  0.1485 ( 14)  0.1559 ( 27) -0.2140 ( 59)
          -0.1096 ( 80)  0.1860 ( 91)  0.1840 (101)  0.1945 (113)
 CRD 24=  -0.3069 (  4)  0.1184 (  5)  0.3884 (  8) -0.2383 (  9) -0.1233 ( 10)
           0.1333 ( 11)  0.1502 ( 18) -0.2354 ( 21)  0.1072 ( 28) -0.1652 ( 29)
           0.1122 ( 32)  0.1150 ( 63) -0.2256 ( 86) -0.1788 ( 87) -0.1520 ( 88)
          -0.1123 ( 91) -0.1459 (100) -0.1063 (101) -0.2217 (107) -0.1749 (108)
          -0.1598 (112) -0.1202 (113)  0.1096 (115) -0.1863 (117) -0.2331 (118)
 CRD 25=  -0.5412 (  8) -0.6944 (  9) -0.2333 ( 60)  0.1298 ( 65) -0.1466 ( 87)
          -0.1422 (108)  0.1194 (116) -0.1465 (117)
 CRD 26=  -0.3012 (  4)  0.2281 (  6) -0.1143 (  8) -0.3371 ( 14)  0.1588 ( 18)
           0.1172 ( 21)  0.1229 ( 41)  0.1340 ( 49) -0.1138 ( 59) -0.2527 ( 63)
          -0.1305 ( 64) -0.1463 ( 65)  0.2933 ( 78)  0.1307 ( 79)  0.1649 ( 80)
           0.1048 ( 86) -0.1764 ( 88) -0.1843 (100)  0.1099 (107)  0.2067 (111)
          -0.2001 (112) -0.1002 (113) -0.1659 (115)  0.1118 (118)
 CRD 27=  -0.1948 ( 12) -0.1815 ( 25) -0.1138 ( 34) -0.1193 ( 66) -0.2564 ( 82)
          -0.1484 ( 83)  0.2267 ( 84)  0.1316 ( 85) -0.1334 ( 89) -0.1774 ( 90)
           0.1080 ( 92) -0.1796 ( 94) -0.1102 ( 95)  0.1887 ( 96)  0.3033 ( 97)
          -0.1181 ( 99) -0.2848 (103)  0.1776 (104)  0.1431 (106) -0.2260 (109)
           0.1448 (110) -0.1391 (119)  0.1909 (120) -0.2407 (121)  0.2577 (122)
 CRD 28=  -0.1770 ( 10) -0.3380 ( 12)  0.1944 ( 16)  0.1012 ( 17)  0.4007 ( 18)
           0.2963 ( 19) -0.2597 ( 21)  0.1312 ( 34)  0.2638 ( 39) -0.1050 ( 47)
          -0.2880 ( 52) -0.2565 ( 55)  0.2785 ( 58)  0.1039 ( 94)
 CRD 29=   0.1701 ( 10) -0.1192 ( 11)  0.1518 ( 14)  0.2016 ( 15)  0.3853 ( 16)
          -0.5886 ( 19) -0.1058 ( 20) -0.2624 ( 21) -0.2658 ( 50) -0.1063 ( 52)
           0.2497 ( 56)  0.1360 ( 58)
 CRD 30=   0.2346 ( 12)  0.1434 ( 14) -0.1185 ( 42) -0.1139 ( 48)  0.1238 ( 61)
          -0.1932 ( 65) -0.2324 ( 67)  0.2286 ( 74) -0.1218 ( 76)  0.1978 ( 80)
           0.2210 ( 82) -0.2418 ( 89)  0.2548 ( 93) -0.2315 ( 97) -0.2467 ( 99)
           0.1689 (102) -0.1661 (105)  0.2397 (106)  0.1554 (110)  0.2066 (114)
          -0.1958 (116) -0.1354 (121)
 CRD 31=   0.1024 (  4) -0.1540 (  5)  0.1135 (  7)  0.1039 (  9)  0.2287 ( 11)
           0.2833 ( 12) -0.2277 ( 13) -0.2828 ( 16)  0.2414 ( 17)  0.2597 ( 18)
          -0.2639 ( 20) -0.2754 ( 21)  0.1304 ( 22) -0.1220 ( 33) -0.2079 ( 37)
           0.2207 ( 47) -0.1659 ( 52)  0.1675 ( 58) -0.1079 (102)  0.1104 (107)
 CRD 32=   0.2445 (  4) -0.1893 (  5) -0.4795 (  6)  0.2344 (  8) -0.1858 (  9)
           0.1550 ( 10) -0.3695 ( 14)  0.1550 ( 15) -0.1092 ( 17)  0.1896 ( 18)
          -0.1648 ( 19)  0.2144 ( 21)  0.1011 ( 37) -0.1080 ( 54)  0.1362 (113)
          -0.1264 (117)
 CRD 33=  -0.3019 (  3) -0.1935 (  5)  0.3116 (  7)  0.1237 (  9) -0.1403 ( 10)
           0.1101 ( 15) -0.1448 ( 17) -0.1686 ( 18)  0.1984 ( 20)  0.1178 ( 21)
           0.3360 ( 22) -0.1043 ( 28)  0.1184 ( 29) -0.3500 ( 33) -0.1088 ( 55)
           0.1059 ( 56)  0.1652 ( 59) -0.1362 ( 60) -0.1004 ( 87) -0.1267 ( 91)
          -0.1565 (101) -0.1300 (108) -0.1858 (113)  0.1006 (115)  0.1276 (116)
          -0.1422 (117)
 CRD 34=   0.1495 (  3) -0.1321 (  7) -0.2214 ( 10)  0.1408 ( 11) -0.1133 ( 13)
           0.2532 ( 15) -0.1100 ( 16) -0.2238 ( 18) -0.1134 ( 19)  0.1315 ( 20)
           0.1917 ( 21)  0.1116 ( 33) -0.2098 ( 37)  0.1950 ( 39)  0.1233 ( 44)
          -0.1281 ( 46)  0.2085 ( 47) -0.2135 ( 50) -0.1825 ( 52)  0.1282 ( 54)
          -0.2755 ( 55)  0.2776 ( 56) -0.1386 ( 57)  0.2062 ( 58) -0.1105 (112)
 CRD 35=   0.1919 ( 10)  0.1721 ( 11) -0.2845 ( 12)  0.2012 ( 13) -0.2637 ( 14)
           0.1333 ( 15) -0.2776 ( 16)  0.2364 ( 17) -0.3439 ( 18) -0.2541 ( 19)
           0.2335 ( 20) -0.4143 ( 21)  0.1311 ( 82) -0.1266 ( 97)
 CRD 36=   0.1251 (  3)  0.1460 (  4) -0.4508 (  6)  0.1106 (  8)  0.3369 ( 14)
          -0.1253 ( 15) -0.1396 ( 18)  0.1135 ( 19) -0.1760 ( 21) -0.1403 ( 26)
           0.1058 ( 53) -0.1565 ( 69)  0.1624 ( 72)  0.1306 ( 86) -0.1429 ( 88)
          -0.1353 (100)  0.1196 (107)  0.1076 (111) -0.2096 (112) -0.1266 (113)
           0.1229 (117)  0.1992 (118)
 CRD 37=   0.1649 (  8) -0.1543 (  9)  0.1363 ( 14)  0.1158 ( 18) -0.1294 ( 20)
          -0.1164 ( 25) -0.1156 ( 32) -0.1561 ( 34)  0.1408 ( 41)  0.1026 ( 44)
          -0.1295 ( 63)  0.2245 ( 81)  0.2014 ( 82)  0.1307 ( 87) -0.2091 ( 97)
          -0.2361 ( 98)  0.1136 (109)  0.1829 (110) -0.1424 (111) -0.2861 (114)
           0.2484 (116)  0.1019 (117) -0.1654 (121)
 CRD 38=   0.1275 (  3) -0.1553 (  7) -0.1126 ( 17) -0.1163 ( 21) -0.1696 ( 25)
          -0.1262 ( 28)  0.1253 ( 29)  0.1414 ( 34) -0.1188 ( 41) -0.1449 ( 42)
          -0.1086 ( 44)  0.1476 ( 48)  0.1399 ( 49)  0.1360 ( 63) -0.1216 ( 65)
           0.1038 ( 74)  0.1584 ( 78) -0.1269 ( 80)  0.2285 ( 84)  0.1455 ( 89)
           0.1691 ( 93)  0.2012 ( 94) -0.1341 ( 99) -0.2073 (103) -0.1951 (104)
          -0.1522 (106) -0.1486 (109)  0.1152 (111) -0.1702 (114)  0.1835 (115)
           0.2219 (119)  0.2138 (120) -0.1132 (121) -0.1364 (122)
 CRD 39=  -0.1108 (  7)  0.1038 (  8)  0.1008 ( 10) -0.2544 ( 11)  0.2703 ( 13)
          -0.1697 ( 15)  0.4382 ( 17) -0.1880 ( 18) -0.3742 ( 20)  0.1742 ( 21)
           0.1220 ( 37)  0.1023 ( 40) -0.1308 ( 47)  0.1084 ( 50) -0.2281 ( 52)
           0.2385 ( 58) -0.1056 ( 69) -0.1083 ( 72) -0.1175 (113) -0.1221 (117)
           0.1307 (119)  0.1055 (120)
 CRD 40=  -0.1215 ( 10) -0.1622 ( 13)  0.2170 ( 14) -0.1654 ( 15)  0.2638 ( 17)
           0.1191 ( 18) -0.4009 ( 19)  0.2804 ( 20)  0.1282 ( 38)  0.1313 ( 40)
           0.1452 ( 50)  0.1611 ( 51)  0.2056 ( 52) -0.3129 ( 53) -0.2148 ( 55)
          -0.3060 ( 56)  0.1070 ( 58)
 CRD 41=   0.1735 (  4) -0.2305 (  8)  0.1362 (  9) -0.3117 ( 10)  0.1670 ( 12)
           0.1776 ( 15)  0.1340 ( 17) -0.1216 ( 18)  0.1359 ( 21) -0.1738 ( 29)
           0.1629 ( 37) -0.1710 ( 44)  0.1606 ( 46) -0.1518 ( 47) -0.1017 ( 54)
          -0.1061 ( 55)  0.1208 ( 57)  0.1256 ( 58)  0.1308 ( 69)  0.1872 ( 72)
           0.1366 ( 78) -0.2138 ( 86) -0.1026 ( 87) -0.1547 ( 88)  0.1383 ( 93)
          -0.1009 ( 94) -0.1223 ( 99) -0.1178 (100) -0.1016 (103) -0.1197 (107)
           0.1096 (111) -0.1103 (122)
 CRD 42=   0.1384 (  5) -0.1126 (  6)  0.1319 (  9) -0.1060 ( 10) -0.2056 ( 15)
           0.1054 ( 16) -0.1313 ( 19)  0.1808 ( 20) -0.1275 ( 23) -0.1370 ( 26)
           0.1070 ( 27) -0.1126 ( 36) -0.1239 ( 38)  0.1110 ( 39)  0.1045 ( 45)
          -0.1038 ( 53) -0.1218 ( 56) -0.1340 ( 60) -0.1611 ( 61)  0.1315 ( 65)
           0.1285 ( 76) -0.1092 ( 80)  0.1549 ( 82) -0.1245 ( 87) -0.1489 ( 89)
           0.1141 ( 91) -0.1815 ( 97) -0.2206 (102)  0.1490 (104)  0.1901 (105)
           0.1342 (106)  0.1010 (107)  0.1481 (109)  0.1515 (110) -0.1287 (115)
          -0.1263 (117)  0.1185 (119) -0.1468 (120) -0.1893 (121)
 CRD 43=  -0.2829 (  3)  0.1755 (  5) -0.1366 (  7)  0.1624 (  8) -0.1603 ( 11)
           0.1216 ( 12) -0.1356 ( 13)  0.1343 ( 15)  0.1101 ( 16) -0.1589 ( 18)
          -0.1266 ( 21)  0.1362 ( 27)  0.1049 ( 28)  0.1151 ( 29) -0.1113 ( 40)
          -0.1542 ( 51)  0.1015 ( 53) -0.1679 ( 54) -0.1037 ( 57) -0.2283 ( 59)
          -0.1805 ( 60)  0.1352 ( 81) -0.1025 ( 88)  0.1362 ( 91) -0.1848 (100)
           0.1309 (102)  0.1908 (107)  0.1320 (110)  0.2059 (113) -0.1562 (114)
           0.1505 (116) -0.1250 (117)
 CRD 44=  -0.2099 (  3)  0.1641 (  5)  0.2681 (  7) -0.1982 (  9)  0.1589 ( 11)
          -0.1453 ( 12)  0.1217 ( 17) -0.1457 ( 20)  0.1466 ( 22)  0.1453 ( 27)
          -0.1494 ( 32) -0.1503 ( 33) -0.1057 ( 39)  0.1026 ( 40)  0.1158 ( 57)
           0.1407 ( 60) -0.1477 ( 68) -0.1047 ( 71)  0.1456 ( 74)  0.1005 ( 85)
           0.1705 ( 87) -0.1565 ( 90)  0.1205 ( 91) -0.1408 ( 92)  0.1058 ( 98)
          -0.1482 ( 99) -0.1014 (104)  0.1420 (105) -0.1414 (106) -0.1200 (107)
          -0.1512 (109)  0.1264 (110) -0.1207 (116)  0.1431 (117)  0.1187 (121)
          -0.1386 (122)
 CRD 45=  -0.2426 (  3)  0.1808 (  4)  0.1794 ( 11) -0.1350 ( 12) -0.1028 ( 13)
          -0.1243 ( 20)  0.1081 ( 21)  0.1257 ( 28)  0.1308 ( 34) -0.1143 ( 39)
          -0.1040 ( 41) -0.1394 ( 45) -0.2325 ( 59)  0.1062 ( 63) -0.1378 ( 67)
          -0.1122 ( 68)  0.1965 ( 75) -0.1020 ( 77)  0.1144 ( 78) -0.1323 ( 83)
          -0.1777 ( 88)  0.1262 ( 92) -0.1308 ( 93) -0.1012 ( 97)  0.1195 ( 99)
          -0.1419 (100) -0.1232 (102)  0.1722 (106) -0.1373 (108)  0.2123 (109)
          -0.2646 (110)  0.1069 (111) -0.1176 (112)  0.1228 (113)  0.1155 (115)
          -0.1872 (121)
 CRD 46=  -0.1329 (  6)  0.2381 (  7) -0.2064 (  8) -0.1043 ( 13) -0.1072 ( 14)
          -0.1062 ( 15)  0.1944 ( 16)  0.1191 ( 17)  0.1193 ( 22) -0.1289 ( 26)
          -0.1123 ( 28) -0.1763 ( 29)  0.1015 ( 42)  0.1788 ( 43)  0.1462 ( 47)
           0.1335 ( 50)  0.1408 ( 60) -0.1680 ( 62) -0.1140 ( 64)  0.1080 ( 66)
           0.1181 ( 68) -0.1549 ( 71) -0.1186 ( 74)  0.1301 ( 77)  0.1043 ( 78)
          -0.1473 ( 86)  0.1317 ( 88)  0.1399 ( 91)  0.1222 ( 94)  0.1411 (102)
          -0.1737 (105) -0.1181 (107) -0.1008 (110)  0.1174 (115) -0.1784 (118)
           0.1878 (120) -0.1185 (121)  0.1162 (122)
 CRD 47=   0.1525 (  3) -0.1104 (  4) -0.1305 (  9) -0.3165 ( 13)  0.2173 ( 15)
          -0.1553 ( 18) -0.1550 ( 23)  0.1553 ( 24) -0.1119 ( 31) -0.1003 ( 32)
           0.1882 ( 46) -0.1554 ( 51) -0.2312 ( 54)  0.1699 ( 59)  0.1345 ( 66)
           0.1609 ( 69) -0.1440 ( 71) -0.1010 ( 78) -0.1266 ( 91) -0.2074 (101)
           0.1355 (109)  0.2921 (112) -0.1115 (115) -0.1221 (116) -0.1576 (121)
 CRD 48=   0.1995 (  4) -0.1520 (  5) -0.1405 (  8)  0.2670 ( 10) -0.2359 ( 11)
           0.1046 ( 14) -0.1150 ( 22) -0.1254 ( 27)  0.1362 ( 28)  0.1385 ( 35)
          -0.1705 ( 36) -0.1016 ( 40)  0.1838 ( 44) -0.1829 ( 57)  0.1269 ( 60)
           0.1316 ( 63)  0.1151 ( 69)  0.1156 ( 70) -0.1935 ( 72) -0.1509 ( 77)
          -0.1276 ( 79)  0.1345 ( 87) -0.1242 (100)  0.1205 (108)  0.1047 (110)
           0.1355 (111) -0.1552 (117) -0.3148 (118)  0.1650 (119)
 CRD 49=   0.1582 (  3) -0.1898 (  7)  0.2473 (  9)  0.1097 ( 10)  0.1360 ( 11)
          -0.2303 ( 12) -0.1676 ( 13) -0.1033 ( 20)  0.1050 ( 30)  0.1502 ( 32)
           0.1216 ( 33) -0.1011 ( 35) -0.1204 ( 37) -0.1111 ( 39)  0.1017 ( 40)
           0.1006 ( 44) -0.1406 ( 45) -0.1797 ( 60) -0.1143 ( 64)  0.1376 ( 65)
           0.1047 ( 72)  0.2151 ( 73)  0.1990 ( 74) -0.1597 ( 76) -0.1333 ( 81)
           0.1554 ( 86) -0.1535 ( 92)  0.1078 ( 95) -0.1009 (101) -0.2786 (108)
           0.1186 (116) -0.1666 (117)
 CRD 50=  -0.1382 (  4)  0.1849 (  5)  0.1134 (  7)  0.1279 ( 10) -0.1850 ( 11)
           0.1331 ( 14)  0.1785 ( 15) -0.2178 ( 16)  0.1193 ( 22) -0.1541 ( 26)
           0.1265 ( 27) -0.1372 ( 28)  0.2030 ( 38) -0.1533 ( 43)  0.1305 ( 44)
           0.1844 ( 46) -0.1498 ( 47)  0.1097 ( 48)  0.2013 ( 61)  0.1044 ( 62)
          -0.2733 ( 70)  0.1211 ( 73)  0.1265 ( 79) -0.1014 ( 80) -0.1155 ( 81)
          -0.1088 ( 88)  0.1232 ( 89)  0.1178 ( 90)  0.2122 ( 98)  0.1274 (100)
           0.1504 (101)  0.1072 (113) -0.1129 (118)  0.1128 (120)
 CRD 51=   0.2102 ( 23) -0.1678 ( 24)  0.1526 ( 31)  0.1268 ( 36) -0.2437 ( 66)
           0.1274 ( 70) -0.1572 ( 74) -0.2781 ( 83) -0.1813 ( 90)  0.1699 ( 92)
           0.2788 ( 96)  0.1507 (102) -0.1060 (105)  0.2646 (109) -0.1188 (110)
           0.1815 (121) -0.3712 (122)
 CRD 52=  -0.2187 ( 15) -0.1011 ( 22) -0.2093 ( 23)  0.1023 ( 30) -0.1182 ( 35)
          -0.1707 ( 36)  0.1601 ( 45)  0.1115 ( 47) -0.1019 ( 50)  0.2207 ( 61)
           0.1583 ( 67) -0.1385 ( 73)  0.1128 ( 75) -0.2548 ( 76) -0.1248 ( 83)
          -0.2363 ( 85)  0.1509 ( 89) -0.1316 ( 93)  0.2466 ( 95)  0.1844 ( 96)
          -0.1680 (103)  0.1015 (104)  0.1215 (109) -0.2683 (119)  0.2385 (120)
          -0.1887 (122)
 CRD 53=   0.1049 ( 23) -0.1157 ( 24) -0.1082 ( 27)  0.1211 ( 31) -0.1086 ( 32)
           0.1105 ( 36) -0.1473 ( 62)  0.2205 ( 64)  0.2523 ( 65)  0.1061 ( 70)
           0.1528 ( 77) -0.2197 ( 79) -0.2918 ( 80) -0.1613 ( 81)  0.1431 ( 83)
           0.1478 ( 90) -0.1716 ( 96)  0.1716 ( 98) -0.1018 (109)  0.3532 (111)
          -0.2840 (115) -0.1295 (116) -0.1012 (119)  0.1394 (120) -0.1091 (121)
           0.1520 (122)
 CRD 54=  -0.1838 ( 10)  0.1302 ( 22) -0.2413 ( 23)  0.1437 ( 25) -0.1318 ( 30)
           0.1983 ( 31)  0.1252 ( 32)  0.2395 ( 35) -0.3329 ( 36)  0.1017 ( 37)
          -0.1696 ( 39)  0.1243 ( 40)  0.1141 ( 41)  0.1788 ( 43) -0.1293 ( 48)
          -0.1022 ( 49)  0.1149 ( 50) -0.1260 ( 51)  0.1013 ( 57)  0.2003 ( 61)
           0.1089 ( 62) -0.1193 ( 67)  0.1396 ( 70)  0.1268 ( 73) -0.1123 ( 74)
          -0.1271 ( 75) -0.1466 ( 76) -0.1567 ( 85)  0.1306 ( 90)  0.1646 ( 95)
           0.1056 (105)  0.1139 (120)

 THE DETERMINANT OF THE G MATRIX IS 10**(   -20)


                     --------------------
                     INTERNAL COORDINATES
                     --------------------

                 - - ATOMS - -         COORDINATE      COORDINATE
 NO.   TYPE    I  J  K  L  M  N        (BOHR,RAD)       (ANG,DEG)
 ----------------------------------------------------------------
   1 STRETCH   1  6                     3.7843702       2.0026026
   2 STRETCH   3  4                     3.7763115       1.9983381
   3 STRETCH   1  2                     2.5651976       1.3574442
   4 STRETCH   1 12                     2.0703134       1.0955628
   5 STRETCH   1 11                     2.0651978       1.0928557
   6 STRETCH   2 13                     2.0541260       1.0869968
   7 STRETCH   2  3                     2.8428567       1.5043751
   8 STRETCH   3 14                     2.0644569       1.0924636
   9 STRETCH   3 15                     2.0658628       1.0932076
  10 STRETCH   4  9                     2.8692117       1.5183216
  11 STRETCH   4  5                     2.8413536       1.5035797
  12 STRETCH   4 16                     2.0638030       1.0921176
  13 STRETCH   5  6                     2.5722994       1.3612023
  14 STRETCH   5 17                     2.0513989       1.0855537
  15 STRETCH   6  7                     2.8019080       1.4827059
  16 STRETCH   6 18                     2.0710836       1.0959703
  17 STRETCH   7  8                     2.5340450       1.3409590
  18 STRETCH   7 19                     2.0538593       1.0868556
  19 STRETCH   8 20                     2.0435750       1.0814134
  20 STRETCH   8  9                     2.8074054       1.4856151
  21 STRETCH   9 10                     2.3232287       1.2293997
  22 BEND      1  2 13                  2.0902341     119.7615930
  23 BEND      1  6  7                  1.8439933     105.6530311
  24 BEND      1  6  5                  1.7960207     102.9044059
  25 BEND      1  6 18                  1.6709119      95.7362000
  26 BEND      1  2  3                  2.0920659     119.8665492
  27 BEND      2  1 12                  2.0220284     115.8536906
  28 BEND      2  1 11                  2.0599666     118.0273918
  29 BEND      2  3 15                  1.9660449     112.6460765
  30 BEND      2  3  4                  1.8412347     105.4949768
  31 BEND      2  1  6                  1.9060733     109.2099533
  32 BEND      2  3 14                  2.0119178     115.2743965
  33 BEND      3  2 13                  2.0491091     117.4053048
  34 BEND      3  4 16                  1.8530508     106.1719890
  35 BEND      3  4  5                  1.8041892     103.3724246
  36 BEND      3  4  9                  1.8197585     104.2644825
  37 BEND      4  5 17                  2.0695213     118.5748348
  38 BEND      4  5  6                  2.0250939     116.0293309
  39 BEND      4  9 10                  2.1397491     122.5985913
  40 BEND      4  9  8                  2.0563776     117.8217602
  41 BEND      4  3 15                  1.8010499     103.1925585
  42 BEND      4  3 14                  1.8540521     106.2293577
  43 BEND      5  6  7                  2.0055789     114.9112060
  44 BEND      5  4 16                  2.0097971     115.1528915
  45 BEND      5  4  9                  1.9824207     113.5843366
  46 BEND      5  6 18                  2.0645497     118.2899836
  47 BEND      6  5 17                  2.1032503     120.5073637
  48 BEND      6  1 12                  1.5358754      87.9991808
  49 BEND      6  1 11                  1.7959058     102.8978211
  50 BEND      6  7 19                  2.0341792     116.5498802
  51 BEND      6  7  8                  2.1472245     123.0269019
  52 BEND      7  8 20                  2.1558068     123.5186305
  53 BEND      7  8  9                  2.0750773     118.8931687
  54 BEND      7  6 18                  2.0132702     115.3518866
  55 BEND      8  9 10                  2.0863798     119.5407596
  56 BEND      8  7 19                  2.1017339     120.4204824
  57 BEND      9  4 16                  1.9698111     112.8618630
  58 BEND      9  8 20                  2.0522942     117.5877952
  59 BEND     11  1 12                  2.0391037     116.8320343
  60 BEND     14  3 15                  1.9674901     112.7288778
  61 TORSION   1  6  5 17               1.5129945      86.6881986
  62 TORSION   1  6  5  4              -1.1905499     -68.2134856
  63 TORSION   1  2  3 15              -2.8876821    -165.4519972
  64 TORSION   1  2  3  4              -0.9354227     -53.5957741
  65 TORSION   1  2  3 14               1.1039549      63.2519569
  66 TORSION   1  6  7  8               1.5176955      86.9575440
  67 TORSION   1  6  7 19              -1.6343752     -93.6428038
  68 TORSION   2  3  4  9               1.9468208     111.5446142
  69 TORSION   2  1  6 18               2.1627244     123.9149797
  70 TORSION   2  1  6  5               0.0547942       3.1394763
  71 TORSION   2  1  6  7              -2.0546411    -117.7222643
  72 TORSION   2  3  4 16              -2.2522002    -129.0415655
  73 TORSION   2  3  4  5              -0.1300754      -7.4527713
  74 TORSION   3  4  9 10               1.4253865      81.6686310
  75 TORSION   3  4  9  8              -1.6763942     -96.0503133
  76 TORSION   3  4  5 17              -1.4778012     -84.6717729
  77 TORSION   3  4  5  6               1.2345944      70.7370492
  78 TORSION   3  2  1 11               3.0450520     174.4686282
  79 TORSION   3  2  1  6               1.0038399      57.5157877
  80 TORSION   3  2  1 12              -0.6950634     -39.8242010
  81 TORSION   4  3  2 13               1.8654296     106.8812440
  82 TORSION   4  9  8 20              -3.0822347    -176.5990372
  83 TORSION   4  9  8  7               0.0632578       3.6244065
  84 TORSION   4  5  6 18              -3.0034635    -172.0857805
  85 TORSION   4  5  6  7               0.8044572      46.0919997
  86 TORSION   5  4  3 15               1.9361130     110.9311056
  87 TORSION   5  4  3 14              -2.2738564    -130.2823731
  88 TORSION   5  6  1 11              -2.1473924    -123.0365187
  89 TORSION   5  6  7 19               2.6818841     153.6606412
  90 TORSION   5  6  7  8              -0.4492305     -25.7390110
  91 TORSION   5  6  1 12               2.0922399     119.8765180
  92 TORSION   5  4  9  8               0.2748941      15.7502701
  93 TORSION   5  4  9 10              -2.9065105    -166.5307856
  94 TORSION   6  5  4 16              -3.0356267    -173.9285968
  95 TORSION   6  5  4  9              -0.7261386     -41.6046767
  96 TORSION   6  7  8  9               0.0022248       0.1274710
  97 TORSION   6  7  8 20              -3.1352220    -179.6349889
  98 TORSION   6  1  2 13              -1.7889650    -102.5001448
  99 TORSION   7  8  9 10              -3.0397838    -174.1667798
 100 TORSION   7  6  1 11               2.0263576     116.1017407
 101 TORSION   7  6  1 12              -0.0171954      -0.9852225
 102 TORSION   7  6  5 17              -2.7751837    -159.0063162
 103 TORSION   8  7  6 18              -2.9444691    -168.7056529
 104 TORSION   8  9  4 16               2.6035667     149.1733864
 105 TORSION   9  4  5 17               2.8446511     162.9865012
 106 TORSION   9  8  7 19              -3.1284984    -179.2497540
 107 TORSION   9  4  3 15              -2.2701761    -130.0715089
 108 TORSION   9  4  3 14              -0.1969602     -11.2849876
 109 TORSION  10  9  8 20               0.0979091       5.6097765
 110 TORSION  10  9  4 16              -0.5778378     -33.1076693
 111 TORSION  11  1  2 13               0.2522471      14.4526956
 112 TORSION  11  1  6 18              -0.0394622      -2.2610152
 113 TORSION  12  1  6 18              -2.0830152    -119.3479785
 114 TORSION  12  1  2 13               2.7953170     160.1598665
 115 TORSION  13  2  3 15              -0.0868298      -4.9749791
 116 TORSION  13  2  3 14              -2.3783781    -136.2710250
 117 TORSION  14  3  4 16               1.8872041     108.1288327
 118 TORSION  15  3  4 16              -0.1860118     -10.6576886
 119 TORSION  16  4  5 17               0.5351630      30.6625811
 120 TORSION  17  5  6 18              -0.2999191     -17.1840963
 121 TORSION  18  6  7 19               0.1866455      10.6939993
 122 TORSION  19  7  8 20               0.0172401       0.9877861

     ------------------------------------------
     THE POINT GROUP IS C1 , NAXIS= 0, ORDER= 1
     ------------------------------------------

     DIMENSIONS OF THE SYMMETRY SUBSPACES ARE
 A   =   60

 ..... DONE SETTING UP THE RUN .....
 STEP CPU TIME =     0.12 TOTAL CPU TIME =          0.1 (      0.0 MIN)
 TOTAL WALL CLOCK TIME=          0.1 SECONDS, CPU UTILIZATION IS    85.71%


          -----------------------------
          STATIONARY POINT LOCATION RUN
          -----------------------------


           ** GEOMETRY CONSTRAINTS ARE BEING APPLIED. **

          TRANSFORMING DISPLACEMENT FROM INTERNALS TO CARTESIANS
          THE ROOT MEAN SQUARE ERROR IN ITERATION   1 IS   0.00000138
          THE ROOT MEAN SQUARE ERROR IN ITERATION   2 IS   0.00000000
 WARNING! THE RADIUS IN CARTESIANS IS    0.00945
 OBTAINING INITIAL HESSIAN, HESS=CALC    

     ---------------------------------
     HESSIAN MATRIX CONTROL PARAMETERS
     ---------------------------------
     METHOD=ANALYTIC   NVIB  =       2   VIBSIZ= 0.01000
     RDHESS=       F   PURIFY=       F   PRTIFC=       F
     VIBANL=       F   DECOMP=       F   PROJCT=       F
     SCLFAC= 1.00000   PRTSCN=       F   NPRT  =       0
     PULCOR=       F   NPUN  =       0   REDOVB=       T
     HSSTYP=GENERAL 
 Old integral subroutine is used

     ------------------------------
     CPHF RESPONSE SOLUTION OPTIONS
     ------------------------------
     POLAR  =       F     NWORD  =       0
     CPHF   =AO      

          ********************
          1 ELECTRON INTEGRALS
          ********************
 ...... END OF ONE-ELECTRON INTEGRALS ......
 STEP CPU TIME =     0.04 TOTAL CPU TIME =          0.2 (      0.0 MIN)
 TOTAL WALL CLOCK TIME=          0.2 SECONDS, CPU UTILIZATION IS    84.21%

          -------------
          GUESS OPTIONS
          -------------
          GUESS =HUCKEL            NORB  =       0          NORDER=       0
          MIX   =       F          PRTMO =       F          PUNMO =       F
          TOLZ  = 1.0E-08          TOLE  = 1.0E-05
          SYMDEN=       F          PURIFY=       F

 INITIAL GUESS ORBITALS GENERATED BY HUCKEL   ROUTINE.
 HUCKEL GUESS REQUIRES     53820 WORDS.

 SYMMETRIES FOR INITIAL GUESS ORBITALS FOLLOW.   BOTH SET(S).
    36 ORBITALS ARE OCCUPIED (   10 CORE ORBITALS).
    11=A       12=A       13=A       14=A       15=A       16=A       17=A   
    18=A       19=A       20=A       21=A       22=A       23=A       24=A   
    25=A       26=A       27=A       28=A       29=A       30=A       31=A   
    32=A       33=A       34=A       35=A       36=A       37=A       38=A   
    39=A       40=A       41=A       42=A       43=A       44=A       45=A   
    46=A   
 ...... END OF INITIAL ORBITAL SELECTION ......
 STEP CPU TIME =     0.02 TOTAL CPU TIME =          0.2 (      0.0 MIN)
 TOTAL WALL CLOCK TIME=          0.2 SECONDS, CPU UTILIZATION IS    85.71%

                    ----------------------
                    AO INTEGRAL TECHNOLOGY
                    ----------------------
     S,P,L SHELL ROTATED AXIS INTEGRALS, REPROGRAMMED BY
        KAZUYA ISHIMURA (IMS) AND JOSE SIERRA (SYNSTAR).
     S,P,D,L SHELL ROTATED AXIS INTEGRALS PROGRAMMED BY
        KAZUYA ISHIMURA (INSTITUTE FOR MOLECULAR SCIENCE).
     S,P,D,F,G SHELL TO TOTAL QUARTET ANGULAR MOMENTUM SUM 5,
        ERIC PROGRAM BY GRAHAM FLETCHER (ELORET AND NASA ADVANCED
        SUPERCOMPUTING DIVISION, AMES RESEARCH CENTER).
     S,P,D,F,G,L SHELL GENERAL RYS QUADRATURE PROGRAMMED BY
        MICHEL DUPUIS (PACIFIC NORTHWEST NATIONAL LABORATORY).

          --------------------
          2 ELECTRON INTEGRALS
          --------------------

 THE -PK- OPTION IS OFF, THE INTEGRALS ARE NOT IN SUPERMATRIX FORM.
 STORING   15000 INTEGRALS/RECORD ON DISK, USING 12 BYTES/INTEGRAL.
 TWO ELECTRON INTEGRAL EVALUATION REQUIRES   89821 WORDS OF MEMORY.
 SCHWARZ INEQUALITY OVERHEAD:      1797 INTEGRALS, T=        0.00
 II,JST,KST,LST =  1  1  1  1 NREC =         1 INTLOC =    1
 II,JST,KST,LST =  2  1  1  1 NREC =         1 INTLOC =    2
 II,JST,KST,LST =  3  1  1  1 NREC =         1 INTLOC =   34
 II,JST,KST,LST =  4  1  1  1 NREC =         1 INTLOC =  144
 II,JST,KST,LST =  5  1  1  1 NREC =         1 INTLOC = 1366
 II,JST,KST,LST =  6  1  1  1 NREC =         1 INTLOC = 1952
 II,JST,KST,LST =  7  1  1  1 NREC =         1 INTLOC = 6838
 II,JST,KST,LST =  8  1  1  1 NREC =         1 INTLOC = 8451
 II,JST,KST,LST =  9  1  1  1 NREC =         2 INTLOC = 5848
 II,JST,KST,LST = 10  1  1  1 NREC =         2 INTLOC = 9576
 II,JST,KST,LST = 11  1  1  1 NREC =         4 INTLOC = 4924
 II,JST,KST,LST = 12  1  1  1 NREC =         4 INTLOC =12043
 II,JST,KST,LST = 13  1  1  1 NREC =         7 INTLOC =12089
 II,JST,KST,LST = 14  1  1  1 NREC =         8 INTLOC = 8173
 II,JST,KST,LST = 15  1  1  1 NREC =        13 INTLOC = 4921
 II,JST,KST,LST = 16  1  1  1 NREC =        14 INTLOC = 6423
 II,JST,KST,LST = 17  1  1  1 NREC =        21 INTLOC = 8476
 II,JST,KST,LST = 18  1  1  1 NREC =        23 INTLOC = 3753
 II,JST,KST,LST = 19  1  1  1 NREC =        33 INTLOC = 9312
 II,JST,KST,LST = 20  1  1  1 NREC =        35 INTLOC = 4495
 II,JST,KST,LST = 21  1  1  1 NREC =        47 INTLOC = 5050
 II,JST,KST,LST = 22  1  1  1 NREC =        51 INTLOC =  432
 II,JST,KST,LST = 23  1  1  1 NREC =        55 INTLOC = 5388
 II,JST,KST,LST = 24  1  1  1 NREC =        59 INTLOC = 7434
 II,JST,KST,LST = 25  1  1  1 NREC =        64 INTLOC = 5440
 II,JST,KST,LST = 26  1  1  1 NREC =        69 INTLOC = 4694
 II,JST,KST,LST = 27  1  1  1 NREC =        74 INTLOC =10976
 II,JST,KST,LST = 28  1  1  1 NREC =        80 INTLOC = 5759
 II,JST,KST,LST = 29  1  1  1 NREC =        86 INTLOC = 3093
 II,JST,KST,LST = 30  1  1  1 NREC =        92 INTLOC = 3745
 SCHWARZ INEQUALITY TEST SKIPPED       25065 INTEGRAL BLOCKS.
 TOTAL NUMBER OF NONZERO TWO-ELECTRON INTEGRALS =             1464374
         98 INTEGRAL RECORDS WERE STORED ON DISK FILE  8.
  ...... END OF TWO-ELECTRON INTEGRALS .....
 STEP CPU TIME =     0.30 TOTAL CPU TIME =          0.5 (      0.0 MIN)
 TOTAL WALL CLOCK TIME=          0.5 SECONDS, CPU UTILIZATION IS    94.12%

          --------------------------
                 RHF SCF CALCULATION
          --------------------------

     NUCLEAR ENERGY =       505.3622027546
     MAXIT =   30     NPUNCH=    2
     EXTRAP=T  DAMP=F  SHIFT=F  RSTRCT=F  DIIS=F  DEM=F  SOSCF=T
     DENSITY MATRIX CONV=  1.00E-05
     SOSCF WILL OPTIMIZE     864 ORBITAL ROTATIONS, SOGTOL=   0.250
     MEMORY REQUIRED FOR RHF ITERS=     59496 WORDS.

 ITER EX DEM     TOTAL ENERGY        E CHANGE  DENSITY CHANGE     ORB. GRAD
   1  0  0     -415.4873071716  -415.4873071716   0.520892197   0.000000000
          ---------------START SECOND ORDER SCF---------------
   2  1  0     -416.0006240374    -0.5133168658   0.250914120   0.061525582
   3  2  0     -416.0331275869    -0.0325035495   0.110488334   0.049677414
   4  3  0     -416.0676368772    -0.0345092903   0.019430276   0.006395303
   5  4  0     -416.0685778837    -0.0009410065   0.005998221   0.003253543
   6  5  0     -416.0687201173    -0.0001422336   0.002420258   0.000837533
   7  6  0     -416.0687404695    -0.0000203522   0.000767013   0.000252997
   8  7  0     -416.0687425383    -0.0000020688   0.000315192   0.000102848
   9  8  0     -416.0687429673    -0.0000004289   0.000096443   0.000035275
  10  9  0     -416.0687430226    -0.0000000553   0.000066968   0.000016144
  11 10  0     -416.0687430309    -0.0000000084   0.000022234   0.000003357
  12 11  0     -416.0687430319    -0.0000000010   0.000010909   0.000002113
  13 12  0     -416.0687430321    -0.0000000002   0.000005286   0.000000818

          -----------------
          DENSITY CONVERGED
          -----------------
     TIME TO FORM FOCK OPERATORS=       0.3 SECONDS (       0.0 SEC/ITER)
     TIME TO SOLVE SCF EQUATIONS=       0.0 SECONDS (       0.0 SEC/ITER)

 FINAL RHF ENERGY IS     -416.0687430321 AFTER  13 ITERATIONS

          ------------
          EIGENVECTORS
          ------------

                      1          2          3          4          5
                  -20.2542   -11.1106   -11.0518   -11.0505   -11.0499
                     A          A          A          A          A   
    1  C  1  S    0.000000   0.000035  -0.019965   0.000034  -0.002408
    2  C  1  S    0.000001   0.000025  -0.003459  -0.000143   0.000004
    3  C  1  X   -0.000001   0.000019  -0.002109  -0.000100  -0.000042
    4  C  1  Y   -0.000000  -0.000013   0.000108  -0.000036  -0.000053
    5  C  1  Z    0.000003  -0.000021  -0.001439  -0.000030  -0.000067
    6  C  2  S    0.000000   0.000017  -0.000397   0.000386  -0.001328
    7  C  2  S    0.000000   0.000007   0.000301   0.002977  -0.005002
    8  C  2  X   -0.000005   0.000034   0.000178   0.000969  -0.001569
    9  C  2  Y    0.000003  -0.000024  -0.000164   0.001907  -0.003280
   10  C  2  Z    0.000005  -0.000020   0.000015  -0.000125   0.000269
   11  C  3  S   -0.000007  -0.000328   0.002685  -0.488572   0.863734
   12  C  3  S    0.000023   0.000120   0.000169  -0.019331   0.028942
   13  C  3  X    0.000040  -0.000204   0.000029  -0.000992  -0.002460
   14  C  3  Y   -0.000002   0.000072   0.000030   0.000088   0.000341
   15  C  3  Z   -0.000022   0.000007   0.000028  -0.000710  -0.001337
   16  C  4  S   -0.000023  -0.001849  -0.028556   0.862824   0.489109
   17  C  4  S    0.000263  -0.005563  -0.000966   0.031478   0.014915
   18  C  4  X    0.000114  -0.002947  -0.000016   0.000483   0.002636
   19  C  4  Y    0.000430  -0.000308   0.000171  -0.000185  -0.000374
   20  C  4  Z   -0.000070   0.002806   0.000165   0.000091   0.001516
   21  C  5  S    0.000005  -0.000307   0.008901  -0.001107  -0.001469
   22  C  5  S    0.000013   0.000082  -0.007141  -0.005387  -0.002964
   23  C  5  X   -0.000063  -0.000070  -0.000360  -0.000442  -0.000228
   24  C  5  Y    0.000028   0.000015   0.003873  -0.003274  -0.001792
   25  C  5  Z    0.000046   0.000024   0.002714   0.001622   0.000881
   26  C  6  S    0.000003  -0.000329   0.991000   0.026006   0.011567
   27  C  6  S    0.000016  -0.000062   0.036982   0.001119   0.000547
   28  C  6  X   -0.000001  -0.000056   0.001349   0.000082   0.000049
   29  C  6  Y   -0.000035  -0.000108   0.000992  -0.000014  -0.000029
   30  C  6  Z    0.000015   0.000057   0.001187   0.000044   0.000061
   31  C  7  S    0.000007  -0.000415  -0.026689  -0.009601  -0.005989
   32  C  7  S    0.000016   0.000122  -0.007297  -0.000581  -0.000314
   33  C  7  X    0.000057  -0.000012   0.003248   0.000136   0.000057
   34  C  7  Y   -0.000038  -0.000006   0.000060  -0.000140  -0.000076
   35  C  7  Z   -0.000053   0.000011  -0.003022  -0.000101  -0.000047
   36  C  8  S   -0.000026  -0.000822  -0.001043  -0.000922  -0.000417
   37  C  8  S    0.000374  -0.006036   0.000376   0.000174   0.000126
   38  C  8  X    0.000211   0.001404  -0.000117  -0.000026  -0.000034
   39  C  8  Y    0.000383  -0.003758  -0.000077  -0.000064  -0.000019
   40  C  8  Z   -0.000213  -0.001389   0.000152   0.000057   0.000021
   41  C  9  S    0.000557   0.992508   0.000276   0.002291   0.001715
   42  C  9  S   -0.007141   0.033182   0.000125  -0.005145  -0.002835
   43  C  9  X   -0.002195   0.000237  -0.000038   0.002614   0.001428
   44  C  9  Y   -0.005425   0.000131   0.000160   0.000073   0.000041
   45  C  9  Z    0.002361  -0.000488   0.000089  -0.002696  -0.001460
   46  O 10  S    0.994274   0.000183   0.000006  -0.000013  -0.000018
   47  O 10  S    0.025897  -0.005837  -0.000061   0.000195   0.000162
   48  O 10  X   -0.001911   0.000628   0.000014  -0.000100  -0.000092
   49  O 10  Y   -0.004769   0.001571   0.000027  -0.000023  -0.000032
   50  O 10  Z    0.002046  -0.000647  -0.000027   0.000143   0.000088
   51  H 11  S   -0.000001  -0.000005   0.000332   0.000022  -0.000061
   52  H 12  S    0.000003  -0.000067   0.000125   0.000060  -0.000108
   53  H 13  S   -0.000002   0.000005  -0.000001  -0.000055   0.000087
   54  H 14  S    0.000010  -0.000473  -0.000021   0.003439  -0.005906
   55  H 15  S    0.000002  -0.000059  -0.000033   0.003447  -0.005912
   56  H 16  S   -0.000138  -0.000052   0.000070  -0.006046  -0.003305
   57  H 17  S   -0.000024  -0.000066   0.000074   0.000070   0.000039
   58  H 18  S   -0.000017  -0.000039  -0.006821  -0.000255  -0.000134
   59  H 19  S   -0.000024  -0.000062   0.000276   0.000025   0.000018
   60  H 20  S   -0.000214   0.000022  -0.000032  -0.000045  -0.000027

                      6          7          8          9         10
                  -11.0482   -11.0371   -11.0256   -11.0200   -11.0050
                     A          A          A          A          A   
    1  C  1  S   -0.000153   0.991899  -0.000608   0.002205  -0.008288
    2  C  1  S    0.000345   0.036416   0.000067   0.000195  -0.007918
    3  C  1  X   -0.000034  -0.001258   0.000042  -0.000056   0.002302
    4  C  1  Y    0.000026   0.001243  -0.000013  -0.000102  -0.003892
    5  C  1  Z   -0.000254  -0.000526  -0.000066  -0.000143  -0.001330
    6  C  2  S    0.000027   0.008960   0.000045  -0.007587   0.992137
    7  C  2  S   -0.000020  -0.007295   0.000016  -0.000739   0.035989
    8  C  2  X    0.000019  -0.002214   0.000003  -0.000483   0.001535
    9  C  2  Y    0.000027   0.003887  -0.000008   0.000048  -0.001307
   10  C  2  Z   -0.000000   0.001250   0.000007  -0.000456   0.000827
   11  C  3  S    0.000553   0.002240  -0.000111   0.000732   0.002271
   12  C  3  S   -0.000004   0.000165   0.000017   0.000159  -0.005716
   13  C  3  X   -0.000014  -0.000119   0.000011  -0.000039   0.001857
   14  C  3  Y   -0.000006   0.000080   0.000002   0.000058   0.003817
   15  C  3  Z   -0.000022   0.000049  -0.000011  -0.000105  -0.000355
   16  C  4  S    0.010587   0.000590   0.000817   0.002899   0.000341
   17  C  4  S    0.000367   0.000037   0.000235  -0.005755   0.000087
   18  C  4  X   -0.000028   0.000030   0.000044   0.000479   0.000036
   19  C  4  Y    0.000106   0.000023  -0.000026   0.003846   0.000070
   20  C  4  Z    0.000089   0.000071   0.000005  -0.001734   0.000005
   21  C  5  S   -0.001459  -0.001895  -0.005717   0.992122   0.007830
   22  C  5  S   -0.000213  -0.000115  -0.000332   0.035938  -0.000215
   23  C  5  X   -0.000184   0.000064  -0.000137  -0.001464   0.000558
   24  C  5  Y    0.000007  -0.000024  -0.000014  -0.000982  -0.000050
   25  C  5  Z    0.000152   0.000025   0.000162  -0.001843   0.000327
   26  C  6  S    0.027984   0.020896   0.000673  -0.008101   0.000160
   27  C  6  S   -0.005001  -0.001924   0.000418  -0.007893   0.000153
   28  C  6  X   -0.003225   0.002201   0.000127   0.000403  -0.000017
   29  C  6  Y   -0.000231  -0.000238  -0.000020  -0.003637  -0.000043
   30  C  6  Z    0.002730   0.001329  -0.000047  -0.002937  -0.000044
   31  C  7  S    0.991673  -0.000450  -0.015757   0.001696  -0.000027
   32  C  7  S    0.035729   0.000091  -0.008431   0.000118  -0.000013
   33  C  7  X    0.000403  -0.000169  -0.001903  -0.000092  -0.000005
   34  C  7  Y    0.001139   0.000003  -0.003984  -0.000233   0.000024
   35  C  7  Z   -0.000334  -0.000151   0.001424  -0.000122  -0.000026
   36  C  8  S    0.016329   0.000554   0.992025   0.005808  -0.000007
   37  C  8  S   -0.007122   0.000063   0.036422   0.000163  -0.000012
   38  C  8  X    0.001859  -0.000032  -0.000944   0.000067   0.000001
   39  C  8  Y    0.003845  -0.000010  -0.001039  -0.000029   0.000002
   40  C  8  Z   -0.001417  -0.000009   0.000759  -0.000171  -0.000003
   41  C  9  S    0.000540  -0.000033   0.001803   0.000385  -0.000017
   42  C  9  S    0.000044   0.000010  -0.006251   0.000071  -0.000003
   43  C  9  X    0.000143  -0.000017  -0.001532  -0.000044  -0.000017
   44  C  9  Y    0.000158   0.000000   0.003692   0.000104  -0.000020
   45  C  9  Z   -0.000128  -0.000002   0.001546  -0.000068  -0.000025
   46  O 10  S    0.000014   0.000000  -0.000019   0.000009   0.000000
   47  O 10  S   -0.000127  -0.000002   0.000307  -0.000078   0.000002
   48  O 10  X    0.000006   0.000001   0.000012   0.000040   0.000004
   49  O 10  Y    0.000070   0.000001  -0.000202   0.000022  -0.000002
   50  O 10  Z   -0.000013  -0.000002  -0.000003  -0.000016   0.000003
   51  H 11  S   -0.000019  -0.006806  -0.000003  -0.000050   0.000152
   52  H 12  S   -0.001056  -0.006806  -0.000187  -0.000032   0.000025
   53  H 13  S    0.000006   0.000053  -0.000002   0.000083  -0.006910
   54  H 14  S    0.000004   0.000008  -0.000024  -0.000071  -0.000091
   55  H 15  S   -0.000002  -0.000114  -0.000002  -0.000017   0.000039
   56  H 16  S   -0.000124  -0.000029  -0.000062   0.000016  -0.000042
   57  H 17  S   -0.000084   0.000013  -0.000014  -0.006872  -0.000086
   58  H 18  S   -0.000126  -0.000026  -0.000084   0.000166  -0.000026
   59  H 19  S   -0.006827   0.000017   0.000215  -0.000117   0.000002
   60  H 20  S    0.000023  -0.000003  -0.006839  -0.000096   0.000001

                     11         12         13         14         15
                   -1.3066    -1.0874    -1.0081    -0.9579    -0.9334
                     A          A          A          A          A   
    1  C  1  S   -0.000735  -0.055541  -0.125422   0.071051  -0.055619
    2  C  1  S    0.001778   0.146013   0.336076  -0.193992   0.157994
    3  C  1  X    0.000359   0.008055  -0.046572   0.030058   0.018755
    4  C  1  Y    0.000439   0.022796   0.077355  -0.034322  -0.020064
    5  C  1  Z    0.000137   0.013265   0.017007   0.005761   0.008980
    6  C  2  S   -0.000840  -0.047619  -0.148059   0.068547   0.015339
    7  C  2  S    0.001869   0.119318   0.386512  -0.182509  -0.043839
    8  C  2  X    0.000754   0.027897   0.058468  -0.017244  -0.002003
    9  C  2  Y    0.000299  -0.013013  -0.030184   0.036142  -0.076555
   10  C  2  Z    0.000016  -0.002430  -0.013407   0.014103  -0.005231
   11  C  3  S   -0.002636  -0.035515  -0.096653   0.013453   0.089303
   12  C  3  S    0.006722   0.097722   0.269850  -0.034982  -0.260971
   13  C  3  X    0.002406   0.002940  -0.033503   0.035706  -0.007368
   14  C  3  Y   -0.000025  -0.019528  -0.053767   0.025585  -0.004496
   15  C  3  Z    0.000363   0.005519  -0.002339   0.016672  -0.004551
   16  C  4  S   -0.021875  -0.073478  -0.012648  -0.107533   0.114679
   17  C  4  S    0.055380   0.197587   0.038277   0.305579  -0.333054
   18  C  4  X    0.021560   0.009657  -0.029980   0.010520  -0.033103
   19  C  4  Y    0.002014  -0.047540   0.005255  -0.046191  -0.020595
   20  C  4  Z   -0.019213   0.000347  -0.000229   0.038570   0.034259
   21  C  5  S   -0.005109  -0.107783  -0.002486  -0.130019  -0.032619
   22  C  5  S    0.011785   0.273157   0.007318   0.353349   0.085208
   23  C  5  X    0.001392   0.005792  -0.019337  -0.005073  -0.010662
   24  C  5  Y    0.003009  -0.026229   0.012310   0.015911  -0.135119
   25  C  5  Z   -0.003871  -0.066874   0.002801  -0.036074  -0.017580
   26  C  6  S   -0.003602  -0.127467   0.017857  -0.046124  -0.124714
   27  C  6  S    0.008555   0.332547  -0.047004   0.122793   0.350333
   28  C  6  X    0.001753   0.029176  -0.056809  -0.030162   0.000483
   29  C  6  Y    0.002732   0.057209   0.000092   0.067510  -0.006519
   30  C  6  Z   -0.000600   0.001632   0.015088   0.097289   0.020685
   31  C  7  S   -0.006741  -0.111042   0.086030   0.098465  -0.023499
   32  C  7  S    0.016065   0.283967  -0.228330  -0.267938   0.067381
   33  C  7  X    0.001474  -0.025365  -0.022060  -0.054230  -0.075750
   34  C  7  Y    0.007267   0.046801  -0.049107  -0.057785  -0.067626
   35  C  7  Z   -0.001048   0.022969   0.009776   0.053690   0.059635
   36  C  8  S   -0.024653  -0.082919   0.088308   0.116099   0.073951
   37  C  8  S    0.058764   0.210200  -0.231527  -0.311499  -0.201661
   38  C  8  X   -0.011077  -0.041588   0.027567   0.020783   0.016937
   39  C  8  Y    0.026345  -0.037067   0.037047   0.059912  -0.040903
   40  C  8  Z    0.010490   0.034322  -0.024840  -0.009106  -0.017111
   41  C  9  S   -0.128072  -0.035444   0.022682  -0.000664   0.078941
   42  C  9  S    0.297784   0.096846  -0.063865   0.001332  -0.229991
   43  C  9  X    0.052682  -0.030345  -0.015943  -0.067088   0.066042
   44  C  9  Y    0.129424  -0.080174   0.062440   0.054279   0.105732
   45  C  9  Z   -0.057161   0.028644   0.008961   0.071876  -0.060734
[...]
 19   H            X -0.04014525  0.00132946  0.01330578  0.12616542 -0.02600722
                   Y -0.02456147  0.00143052  0.01542555 -0.02850809  0.00934637
                   Z  0.04748541 -0.00168735 -0.00906624 -0.12995508  0.02636052
 20   H            X  0.01081339 -0.00031510 -0.00398614  0.06748761 -0.01714737
                   Y  0.00187724 -0.00025677  0.00958917 -0.07631591  0.09307963
                   Z -0.01464733 -0.00059849  0.01746537 -0.09482127  0.03178839

 TRANS. SAYVETZ    X  0.00000190 -0.00000082 -0.00000165  0.00000060  0.00000036
                   Y -0.00000165 -0.00000016 -0.00000142  0.00000100  0.00000066
                   Z  0.00000005 -0.00000122  0.00000039 -0.00000126  0.00000065
               TOTAL  0.00000252  0.00000148  0.00000221  0.00000172  0.00000099

   ROT. SAYVETZ    X  0.00288896 -0.00051161 -0.00708228 -0.00103207  0.00065213
                   Y  0.00271948  0.00480820 -0.00017701  0.00041430 -0.00079766
                   Z -0.00372281  0.00066340  0.01020614  0.00139726 -0.00092132
               TOTAL  0.00544067  0.00488064  0.01242398  0.00178582  0.00138216

                           51          52          53          54          55
       FREQUENCY:      3634.23     3638.60     3689.38     3697.16     3698.89  
        SYMMETRY:         A           A           A           A           A   
    REDUCED MASS:      1.06237     1.06453     1.09084     1.09395     1.09617
    IR INTENSITY:      0.02575     0.10509     0.12809     0.07528     0.09881

  1   C            X  0.00091816 -0.00024337 -0.00142340  0.00060873 -0.00452474
                   Y -0.04887759  0.03248733  0.00502731 -0.00097092  0.00760368
                   Z -0.02853407  0.01984728  0.00361239 -0.00189672  0.00750283
  2   C            X  0.00537982  0.00072793  0.01129254 -0.00996422  0.05812178
                   Y  0.00162441 -0.00728820 -0.00018111 -0.00028156 -0.00059154
                   Z -0.00832033 -0.00196174 -0.01076637  0.00947658 -0.05577102
  3   C            X  0.00481335  0.00704673 -0.00211398  0.00137719 -0.00553883
                   Y  0.03187667  0.05002621 -0.00459865  0.00279959 -0.00702701
                   Z -0.01695377 -0.02796590  0.00377796 -0.00103251  0.00711315
  4   C            X  0.00044842  0.00044403  0.00700899  0.00543015 -0.00097698
                   Y -0.00265633 -0.00124967 -0.04676013 -0.04431269  0.00591755
                   Z -0.00223501  0.00043678 -0.03230519 -0.02788682  0.00321195
  5   C            X -0.00186927 -0.00039716 -0.02078030  0.00390129  0.00125207
                   Y -0.00031118  0.00052632 -0.00143438  0.00544873  0.00066519
                   Z  0.00330239  0.00079510  0.03817802 -0.00684071 -0.00237403
  6   C            X  0.00050679 -0.00035493  0.00474340 -0.00591004 -0.00212709
                   Y  0.00303485  0.00019378  0.03204262 -0.05153443 -0.01708722
                   Z -0.00138465 -0.00126889 -0.01644332  0.02319096  0.00685326
  7   C            X  0.00048206 -0.00011343  0.00169936 -0.00561322 -0.00276569
                   Y -0.00060273 -0.00010928 -0.00868752  0.02347626  0.01072678
                   Z  0.00005194 -0.00003989 -0.00310676  0.00929711  0.00447429
  8   C            X -0.00035853 -0.00014554 -0.00312389  0.00967630  0.00426417
                   Y -0.00002757 -0.00009140  0.00043221 -0.00095769 -0.00046335
                   Z  0.00045637  0.00011317  0.00310338 -0.00990136 -0.00439991
  9   C            X  0.00010148  0.00020865 -0.00093539 -0.00143905 -0.00000776
                   Y -0.00003234  0.00002594  0.00019242  0.00052221  0.00010768
                   Z  0.00039039  0.00011788  0.00089625  0.00153164  0.00006612
 10   O            X  0.00000504  0.00000433  0.00004651  0.00018806 -0.00000909
                   Y  0.00000745 -0.00001165 -0.00001344  0.00003871 -0.00001364
                   Z -0.00002693  0.00002546 -0.00006398 -0.00020316 -0.00001493
 11   H            X  0.28086864 -0.18500799 -0.02051073  0.00410452 -0.01773194
                   Y  0.47950809 -0.31596849 -0.03821601  0.00815904 -0.03394395
                   Z -0.15542434  0.10294251  0.01310004 -0.00257192  0.01117150
 12   H            X -0.27364700  0.18149309  0.03071557 -0.01152905  0.04683872
                   Y  0.04362367 -0.02958072 -0.00447697  0.00143489 -0.00508939
                   Z  0.47854775 -0.32010927 -0.04929143  0.02037022 -0.08297964
 13   H            X -0.11013052 -0.02249482 -0.12057491  0.10767874 -0.63247881
                   Y  0.00129381 -0.00252864  0.00080049 -0.00075091  0.00442105
                   Z  0.11220459  0.02265232  0.12275915 -0.10913353  0.64098597
 14   H            X -0.19253248 -0.30111195  0.03449857 -0.01222980  0.04981372
                   Y -0.03165154 -0.05098271  0.00501232 -0.00165391  0.00606528
                   Z  0.31001410  0.48806403 -0.05129660  0.01904213 -0.08217299
 15   H            X  0.15265423  0.23663951 -0.01586435  0.00618126 -0.01242717
                   Y -0.31209866 -0.48371638  0.03559533 -0.01440135  0.02967100
                   Z -0.11277993 -0.17550366  0.01373375 -0.00582803  0.01098154
 16   H            X -0.00270960 -0.00033817 -0.06640744 -0.06014993  0.00815218
                   Y  0.03382264  0.00482618  0.53532064  0.48494604 -0.06120558
                   Z  0.02450402  0.00348172  0.36504415  0.32852668 -0.04096797
 17   H            X  0.02177048  0.00479586  0.23806205 -0.04314819 -0.01713300
                   Y  0.00252709  0.00047837  0.02919380 -0.00683374 -0.00222349
                   Z -0.03976627 -0.00878558 -0.44692822  0.08040603  0.03193440
 18   H            X -0.00259583 -0.00065878 -0.04326769  0.06664684  0.02203909
                   Y -0.03528556 -0.01128689 -0.37340811  0.57604192  0.18522671
                   Z  0.01798928  0.00600933  0.18018324 -0.27579103 -0.08780394
 19   H            X -0.00254393 -0.00026633 -0.02801650  0.07804369  0.03574107
                   Y  0.00804141  0.00135747  0.09390970 -0.25840789 -0.11847804
                   Z  0.00419514  0.00042218  0.04405057 -0.12074537 -0.05544355
 20   H            X  0.00469010  0.00147357  0.03388031 -0.11556855 -0.05058924
                   Y  0.00027395  0.00027684  0.00185616 -0.00555421 -0.00246246
                   Z -0.00529603 -0.00138838 -0.03491078  0.11731233  0.05130694

 TRANS. SAYVETZ    X  0.00000031 -0.00000061 -0.00000071 -0.00000008 -0.00000035
                   Y -0.00000072 -0.00000074  0.00000031 -0.00000015 -0.00000039
                   Z -0.00000078 -0.00000036  0.00000084 -0.00000017 -0.00000022
               TOTAL  0.00000111  0.00000102  0.00000114  0.00000024  0.00000057

   ROT. SAYVETZ    X -0.00001561  0.00059829  0.00019054  0.00064871  0.00003712
                   Y -0.00034052 -0.00014152  0.00052628  0.00005178 -0.00000553
                   Z  0.00014464 -0.00080681 -0.00014934 -0.00084782 -0.00008571
               TOTAL  0.00037029  0.00101436  0.00057929  0.00106878  0.00009357

                           56          57          58          59          60
       FREQUENCY:      3704.95     3715.78     3736.11     3785.61     3787.42  
        SYMMETRY:         A           A           A           A           A   
    REDUCED MASS:      1.09177     1.10089     1.10599     1.11703     1.11743
    IR INTENSITY:      0.49685     0.07574     0.06442     0.00070     0.01685

  1   C            X -0.00017339 -0.00063921  0.00017530  0.04685781  0.02796620
                   Y  0.00108292 -0.00054328  0.00013252  0.03584351  0.02193217
                   Z  0.00000284  0.00140325 -0.00027991 -0.05541367 -0.03283820
  2   C            X  0.00546802  0.00502630 -0.00007815  0.00077602  0.00396047
                   Y -0.00025657 -0.00005602 -0.00001407 -0.00097652  0.00025268
                   Z -0.00513517 -0.00448912  0.00005209 -0.00077250 -0.00341905
  3   C            X -0.00022509 -0.00058137  0.00013964 -0.02684333  0.04483893
                   Y -0.00010268  0.00037868  0.00004550  0.02250219 -0.03837138
                   Z  0.00074316  0.00133800 -0.00027235  0.03336477 -0.05540699
  4   C            X  0.00133415  0.00257437 -0.00040747  0.00004556 -0.00027570
                   Y -0.01334907 -0.02684270  0.00259536  0.00015219 -0.00046546
                   Z -0.00760080 -0.01292921  0.00139603 -0.00010472 -0.00025073
  5   C            X  0.00829862  0.03057467 -0.00256838  0.00011314  0.00027364
                   Y  0.00314476  0.00369983 -0.00029200 -0.00013868  0.00002873
                   Z -0.01617977 -0.06312462  0.00525804 -0.00022260 -0.00064497
  6   C            X -0.00437953  0.00431857 -0.00191054 -0.00019070 -0.00020428
                   Y -0.02216982  0.03817413 -0.00548317  0.00034922  0.00065082
                   Z  0.01259891 -0.01332426  0.00347464  0.00005978 -0.00023571
  7   C            X  0.01755151 -0.00237743  0.00851833  0.00007474  0.00008037
                   Y -0.05535577  0.00228087 -0.04663610  0.00040083  0.00046277
                   Z -0.02654804  0.00284147 -0.01554477  0.00028173  0.00020162
  8   C            X -0.02798401  0.00826659  0.05200878  0.00008998  0.00005180
                   Y  0.00179860  0.00084881  0.00984671  0.00001561 -0.00013313
                   Z  0.02869690 -0.00832967 -0.05185156 -0.00000382  0.00008825
  9   C            X  0.00060234 -0.00088255 -0.00060359 -0.00006418  0.00010814
                   Y -0.00091766  0.00003434  0.00211419 -0.00005864 -0.00000987
                   Z -0.00077780  0.00088081  0.00093659 -0.00007095  0.00013704
 10   O            X -0.00011878  0.00011575 -0.00001493 -0.00001014  0.00001671
                   Y  0.00003975  0.00009130 -0.00034880  0.00001241 -0.00000789
                   Z  0.00012202 -0.00010919 -0.00003776 -0.00000751  0.00002094
 11   H            X -0.00330205  0.00293603 -0.00099910 -0.27305158 -0.16400348
                   Y -0.00615441  0.00546463 -0.00144377 -0.46751074 -0.28013341
                   Z  0.00209791 -0.00191387  0.00050784  0.14772420  0.08890812
 12   H            X  0.00140790  0.00636548 -0.00146264 -0.28310922 -0.16796380
                   Y -0.00016269 -0.00043128  0.00002022  0.04858531  0.02898514
                   Z -0.00356276 -0.01132468  0.00328752  0.50485856  0.29876314
 13   H            X -0.05921661 -0.05306673  0.00052404 -0.01020321 -0.04625364
                   Y  0.00035142  0.00037910  0.00008421  0.00430989 -0.00056400
                   Z  0.05981366  0.05380130 -0.00062047  0.01019718  0.04426025
 14   H            X  0.00368424  0.00640893 -0.00200272  0.17572113 -0.29201213
                   Y  0.00018015  0.00052939 -0.00017105  0.03121316 -0.05196375
                   Z -0.00603072 -0.01070660  0.00270337 -0.28851460  0.47798579
 15   H            X -0.00031600  0.00207812  0.00006618  0.14337651 -0.24096011
                   Y  0.00025818 -0.00490331 -0.00005009 -0.29525115  0.49484346
                   Z  0.00004827 -0.00189070 -0.00007055 -0.10420751  0.17514873
 16   H            X -0.01743379 -0.03230249  0.00277532  0.00008302 -0.00043044
                   Y  0.13846830  0.25914798 -0.02311591 -0.00280367  0.00776867
                   Z  0.09404057  0.17381836 -0.01552772 -0.00192108  0.00551283
 17   H            X -0.09712170 -0.35702170  0.02784648 -0.00110197 -0.00357775
                   Y -0.01333778 -0.04451228  0.00377936 -0.00000457 -0.00047475
                   Z  0.18459814  0.67756139 -0.05351119  0.00207279  0.00656698
 18   H            X  0.03140288 -0.04583705  0.00804355 -0.00021026 -0.00063529
                   Y  0.25797974 -0.38898331  0.05999312 -0.00644091 -0.00807169
                   Z -0.12553651  0.18431668 -0.02939432  0.00330719  0.00407612
 19   H            X -0.19488143  0.01267553 -0.13586510  0.00113797  0.00123359
                   Y  0.63072004 -0.03716326  0.44531661 -0.00389022 -0.00393798
                   Z  0.29671282 -0.01835961  0.20747537 -0.00151800 -0.00156356
 20   H            X  0.33179614 -0.09512091 -0.55682597 -0.00084649 -0.00010137
                   Y  0.01654567 -0.00499815 -0.03009653 -0.00006845  0.00004716
                   Z -0.33504378  0.09631119  0.56242907  0.00057213 -0.00017190

 TRANS. SAYVETZ    X  0.00000003 -0.00000057  0.00000008  0.00000007  0.00000006
                   Y  0.00000060 -0.00000037 -0.00000050  0.00000002  0.00000005
                   Z -0.00000006 -0.00000033  0.00000022 -0.00000001  0.00000007
               TOTAL  0.00000060  0.00000075  0.00000056  0.00000008  0.00000011

   ROT. SAYVETZ    X  0.00021204 -0.00001643  0.00000731  0.00031262 -0.00016666
                   Y -0.00003773  0.00036948 -0.00006135 -0.00016208 -0.00116504
                   Z -0.00032991  0.00008215 -0.00002762 -0.00055162  0.00016614
               TOTAL  0.00039398  0.00037886  0.00006768  0.00065443  0.00118857

 REFERENCE ON SAYVETZ CONDITIONS - A. SAYVETZ, J.CHEM.PHYS., 7, 383-389(1939).

 NOTE - THE MODES J,K ARE ORTHONORMALIZED ACCORDING TO
 SUM ON I   M(I) * (X(I,J)*X(I,K) + Y(I,J)*Y(I,K) + Z(I,J)*Z(I,K)) = DELTA(J,K)

  MODE FREQ(CM**-1)  SYMMETRY  RED. MASS  IR INTENS.
     1    1104.291    A        9.338680    0.024870
     2       2.523    A        4.773597    0.014702
     3       0.009    A        6.704556    0.000000
     4       0.006    A        6.703401    0.000000
     5       0.063    A        6.764650    0.000009
     6      30.186    A        5.906931    0.016317
     7      36.926    A        4.149547    0.001121
     8     110.802    A        4.127402    0.027974
     9     202.388    A        3.551154    0.015110
    10     257.703    A        4.162363    0.029639
    11     373.619    A        5.304784    0.031359
    12     409.692    A        5.708822    0.167687
    13     455.967    A        1.988823    0.060085
    14     487.046    A        3.522098    0.072894
    15     497.109    A        4.526916    0.137413
    16     536.737    A        1.988387    0.232122
    17     570.815    A        2.524543    0.188803
    18     603.770    A        5.428321    0.018052
    19     674.687    A        5.935723    0.036595
    20     836.991    A        3.390225    0.044306
    21     852.799    A        4.076073    0.044311
    22     924.666    A        1.632468    1.208076
    23     935.490    A        1.775779    0.152489
    24     970.956    A        1.614707    0.882813
    25     995.073    A        1.366430    0.225117
    26    1023.728    A        1.420352    0.044026
    27    1084.970    A        1.837624    0.188920
    28    1122.377    A        2.885054    0.002666
    29    1171.487    A        1.975615    0.073456
    30    1201.661    A        1.124629    0.032848
    31    1209.634    A        1.272010    0.004250
    32    1228.708    A        1.505381    0.137298
    33    1260.367    A        1.270933    0.227279
    34    1278.537    A        1.150034    0.414119
    35    1305.312    A        1.232576    0.016758
    36    1328.584    A        1.261563    0.107136
    37    1355.642    A        1.267530    0.029851
    38    1358.620    A        1.122841    0.019608
    39    1419.215    A        1.832340    0.645910
    40    1471.243    A        1.331249    0.101375
    41    1484.764    A        1.781007    0.004754
    42    1600.434    A        1.603769    0.151478
    43    1639.558    A        1.714664    0.150694
    44    1668.166    A        1.507120    0.060132
    45    1726.946    A        2.570919    0.328875
    46    1758.473    A        1.888932    0.049715
    47    1811.426    A        1.277026    0.197370
    48    1862.953    A        2.584515    0.054609
    49    2004.990    A        7.009591    0.061620
    50    2075.503    A       10.555093    1.843238
    51    3634.226    A        1.062370    0.025753
    52    3638.605    A        1.064533    0.105089
    53    3689.379    A        1.090841    0.128095
    54    3697.165    A        1.093952    0.075285
    55    3698.889    A        1.096171    0.098806
    56    3704.953    A        1.091767    0.496851
    57    3715.778    A        1.100887    0.075739
    58    3736.112    A        1.105991    0.064418
    59    3785.605    A        1.117030    0.000695
    60    3787.416    A        1.117432    0.016845

     -------------------------------
     THERMOCHEMISTRY AT T=  298.15 K
     -------------------------------

 USING IDEAL GAS, RIGID ROTOR, HARMONIC NORMAL MODE APPROXIMATIONS.
 P=  1.01325E+05 PASCAL.
 ALL FREQUENCIES ARE SCALED BY   1.00000
 THE MOMENTS OF INERTIA ARE (IN AMU*BOHR**2)
            865.49947          1321.87114          1661.17538
 THE ROTATIONAL SYMMETRY NUMBER IS  1.0
 THE ROTATIONAL CONSTANTS ARE (IN GHZ)
      2.08329     1.36404     1.08543
   1 IMAGINARY FREQUENCY VIBRATION(S) IS(ARE) EXCLUDED
     FROM THE FOLLOWING THERMOCHEMICAL ANALYSIS.
      8 -     60 VIBRATIONAL MODES ARE USED IN THERMOCHEMISTRY.
 THE HARMONIC ZERO POINT ENERGY IS (SCALED BY   1.000)
        0.191908 HARTREE/MOLECULE    42118.868740 CM**-1/MOLECULE 
      120.424010 KCAL/MOL              503.854056 KJ/MOL

               Q               LN Q
 ELEC.     1.00000E+00       0.000000
 TRANS.    6.10192E+07      17.926699
 ROT.      4.93489E+05      13.109255
 VIB.      1.47875E+01       2.693783
 TOT.      4.45286E+14      33.729737

              E         H         G         CV        CP        S
           KJ/MOL    KJ/MOL    KJ/MOL   J/MOL-K   J/MOL-K   J/MOL-K
 ELEC.      0.000     0.000     0.000     0.000     0.000     0.000
 TRANS.     3.718     6.197   -44.439    12.472    20.786   169.836
 ROT.       3.718     3.718   -32.497    12.472    12.472   121.467
 VIB.     515.176   515.176   497.176    94.236    94.236    60.370
 TOTAL    522.613   525.092   420.240   119.179   127.494   351.674
 VIB. THERMAL CORRECTION E(T)-E(0) = H(T)-H(0) =     11321.684 J/MOL

              E         H         G         CV        CP        S
         KCAL/MOL  KCAL/MOL  KCAL/MOL CAL/MOL-K CAL/MOL-K CAL/MOL-K
 ELEC.      0.000     0.000     0.000     0.000     0.000     0.000
 TRANS.     0.889     1.481   -10.621     2.981     4.968    40.592
 ROT.       0.889     0.889    -7.767     2.981     2.981    29.031
 VIB.     123.130   123.130   118.828    22.523    22.523    14.429
 TOTAL    124.907   125.500   100.440    28.485    30.472    84.052
 VIB. THERMAL CORRECTION E(T)-E(0) = H(T)-H(0) =      2705.947 CAL/MOL

     *******************************************************
     * THIS IS NOT A STATIONARY POINT ON THE MOLECULAR PES *
     *     THE VIBRATIONAL ANALYSIS IS NOT VALID !!!       *
     *******************************************************
 ......END OF NORMAL COORDINATE ANALYSIS......
 STEP CPU TIME =     0.01 TOTAL CPU TIME =        146.7 (      2.4 MIN)
 TOTAL WALL CLOCK TIME=        147.2 SECONDS, CPU UTILIZATION IS    99.62%
               580000  WORDS OF DYNAMIC MEMORY USED
 EXECUTION OF GAMESS TERMINATED NORMALLY Mon Nov 15 02:41:12 2021
 DDI: 263640 bytes (0.3 MB / 0 MWords) used by master data server.

 ----------------------------------------
 CPU timing information for all processes
 ========================================
 0: 144.306 + 2.356 = 146.662
 ----------------------------------------
 ddikick.x: exited gracefully.
----- accounting info -----
Files used on the master node chemcompute-node-0.novalocal were:
-rw-r--r--. 1 chemcomp chemcomp     1349 Nov 15 02:38 /scratch/306619/342633.F05
-rw-rw-r--. 1 chemcomp chemcomp 17821584 Nov 15 02:40 /scratch/306619/342633.F08
-rw-rw-r--. 1 chemcomp chemcomp 85196800 Nov 15 02:41 /scratch/306619/342633.F10
-rw-rw-r--. 1 chemcomp chemcomp   878880 Nov 15 02:41 /scratch/306619/342633.F18
Mon Nov 15 02:41:15 UTC 2021
0.162u 0.119s 2:30.85 0.1%	0+0k 8+216io 0pf+0w
Finishing Up...
Looking for IR data...
Looking for Raman data...
vibramans not found
Looking for thermodynamics data...
Looking for UV-Vis data...
306619
