----- GAMESS execution script 'rungms' -----
This job is running on host chemcompute-node-0.novalocal
under operating system Linux at Mon Nov 15 02:53:36 UTC 2021
SLURM has assigned the following compute nodes to this run:
chemcompute-node-0
Available scratch disk space (Kbyte units) at beginning of the job is
Filesystem     1K-blocks     Used Available Use% Mounted on
/dev/sda1       62903276 17616036  45287240  29% /
GAMESS temporary binary files will be written to /scratch/306622
GAMESS supplementary output files will be written to /data/slurm/342636
Copying input file 342636.inp to your run's scratch directory...
The generated host list is
chemcompute-node-0.novalocal

 Distributed Data Interface kickoff program.
 Initiating 1 compute processes on 1 nodes to run the following command:
 /data/gamess-2019R1-ddi/gamess.00.x 342636 

          ******************************************************
          *         GAMESS VERSION = 30 JUN 2019 (R1)          *
          *             FROM IOWA STATE UNIVERSITY             *
          * M.W.SCHMIDT, K.K.BALDRIDGE, J.A.BOATZ, S.T.ELBERT, *
          *   M.S.GORDON, J.H.JENSEN, S.KOSEKI, N.MATSUNAGA,   *
          *          K.A.NGUYEN, S.J.SU, T.L.WINDUS,           *
          *       TOGETHER WITH M.DUPUIS, J.A.MONTGOMERY       *
          *         J.COMPUT.CHEM.  14, 1347-1363(1993)        *
          **************** 64 BIT LINUX VERSION ****************

  SINCE 1993, STUDENTS AND POSTDOCS WORKING AT IOWA STATE UNIVERSITY
  AND ALSO IN THEIR VARIOUS JOBS AFTER LEAVING ISU HAVE MADE IMPORTANT
  CONTRIBUTIONS TO THE CODE:
     IVANA ADAMOVIC, CHRISTINE AIKENS, YURI ALEXEEV, POOJA ARORA,
     ANDREY ASADCHEV, ROB BELL, PRADIPTA BANDYOPADHYAY, JONATHAN BENTZ,
     COLLEEN BERTONI, BRETT BODE, KURT BRORSEN, CALEB CARLIN, GALINA CHABAN,
     WEI CHEN, CHEOL HO CHOI, PAUL DAY, ALBERT DEFUSCO, NUWAN DESILVA,
     TIM DUDLEY, DMITRI FEDOROV, ALEX FINDLATER, GRAHAM FLETCHER, 
     MARK FREITAG, KURT GLAESEMANN, ANASTASIA GUNINA,
     DAN KEMP, GRANT MERRILL, NORIYUKI MINEZAWA, JONATHAN MULLIN,
     TAKESHI NAGATA, SEAN NEDD, HEATHER NETZLOFF, BOSILJKA NJEGIC, RYAN OLSON,
     MIKE PAK, BUU PHAM,
     SPENCER PRUITT, LUKE ROSKOP, JIM SHOEMAKER, LYUDMILA SLIPCHENKO,
     TONY SMITH, SAROM SOK LEANG, JIE SONG, TETSUYA TAKETSUGU, SIMON WEBB,
     PENG XU, SOOHAENG YOO, FEDERICO ZAHARIEV

  ADDITIONAL CODE HAS BEEN PROVIDED BY COLLABORATORS IN OTHER GROUPS:
     IOWA STATE UNIVERSITY:
          JOE IVANIC, AARON WEST, LAIMUTIS BYTAUTAS, KLAUS RUEDENBERG
     UNIVERSITY OF TOKYO: KIMIHIKO HIRAO, TAKAHITO NAKAJIMA,
          TAKAO TSUNEDA, MUNEAKI KAMIYA, SUSUMU YANAGISAWA,
          KIYOSHI YAGI, MAHITO CHIBA, SEIKEN TOKURA, NAOAKI KAWAKAMI
     UNIVERSITY OF AARHUS: FRANK JENSEN
     UNIVERSITY OF IOWA: VISVALDAS KAIRYS, HUI LI
     NATIONAL INST. OF STANDARDS AND TECHNOLOGY: WALT STEVENS, DAVID GARMER
     UNIVERSITY OF PISA: BENEDETTA MENNUCCI, JACOPO TOMASI
     UNIVERSITY OF MEMPHIS: HENRY KURTZ, PRAKASHAN KORAMBATH
     UNIVERSITY OF ALBERTA: TOBY ZENG, MARIUSZ KLOBUKOWSKI
     UNIVERSITY OF NEW ENGLAND: MARK SPACKMAN
     MIE UNIVERSITY: HIROAKI UMEDA
     NAT. INST. OF ADVANCED INDUSTRIAL SCIENCE AND TECHNOLOGY: KAZUO KITAURA
     MICHIGAN STATE UNIVERSITY:
          KAROL KOWALSKI, MARTA WLOCH, JEFFREY GOUR, JESSE LUTZ,
          WEI LI, JUN SHEN, J. EMILIANO DEUSTUA, PIOTR PIECUCH
     UNIVERSITY OF MINNESOTA:
          YINAN SHU
     UNIVERSITY OF SILESIA: MONIKA MUSIAL, STANISLAW KUCHARSKI
     FACULTES UNIVERSITAIRES NOTRE-DAME DE LA PAIX:
          OLIVIER QUINET, BENOIT CHAMPAGNE
     UNIVERSITY OF CALIFORNIA - SANTA BARBARA: BERNARD KIRTMAN
     INSTITUTE FOR MOLECULAR SCIENCE:
          KAZUYA ISHIMURA, MICHIO KATOUDA, AND SHIGERU NAGASE
     UNIVERSITY OF NOTRE DAME: ANNA POMOGAEVA, DAN CHIPMAN
     KYUSHU UNIVERSITY:
          HARUYUKI NAKANO,
          FENG LONG GU, JACEK KORCHOWIEC, MARCIN MAKOWSKI, AND YURIKO AOKI,
          HIROTOSHI MORI AND EISAKU MIYOSHI
     PENNSYLVANIA STATE UNIVERSITY:
          TZVETELIN IORDANOV, CHET SWALINA, JONATHAN SKONE,
          SHARON HAMMES-SCHIFFER
     WASEDA UNIVERSITY:
          MASATO KOBAYASHI, TOMOKO AKAMA, TSUGUKI TOUMA,
          TAKESHI YOSHIKAWA, YASUHIRO IKABATA, JUNJI SEINO,
          YUYA NAKAJIMA, HIROMI NAKAI
     NANJING UNIVERSITY: SHUHUA LI
     UNIVERSITY OF NEBRASKA:
          PEIFENG SU, DEJUN SI, NANDUN THELLAMUREGE, YALI WANG, HUI LI
     UNIVERSITY OF ZURICH: ROBERTO PEVERATI, KIM BALDRIDGE
     N. COPERNICUS UNIVERSITY AND JACKSON STATE UNIVERSITY:
          MARIA BARYSZ
     UNIVERSITY OF COPENHAGEN: Jimmy Kromann, CASPER STEINMANN
     TOKYO INSTITUTE OF TECHNOLOGY: HIROYA NAKATA
     NAGOYA UNIVERSITY: YOSHIO NISHIMOTO, STEPHAN IRLE
     MOSCOW STATE UNIVERSITY: VLADIMIR MIRONOV
     A.N.NESMEYANOV INSTITUTE OF ORGANOELEMENT COMPOUNDS OF RUSSIAN ACADEMY OF SCIENCES:
          IGOR S. GERASIMOV

 EXECUTION OF GAMESS BEGUN Mon Nov 15 02:53:38 2021

            ECHO OF THE FIRST FEW INPUT CARDS -
 INPUT CARD>!File created by the GAMESS Input Deck Generator Plugin for Avogadro            
 INPUT CARD> $BASIS GBASIS=STO NGAUSS=3 $END                                                
 INPUT CARD> $CONTRL SCFTYP=RHF RUNTYP=IRC $END                                             
 INPUT CARD> $STATPT  HESS=READ ihrep=5 $END                                                
 INPUT CARD> $irc npoint=100 saddle=.t. tsengy=.t. forwrd=.t. opttol=0.0005 stride=0.1 $end 
 INPUT CARD>                                                                                
 INPUT CARD> $DATA                                                                          
 INPUT CARD>Title                                                                           
 INPUT CARD>C1                                                                              
 INPUT CARD>C     6.0     2.84652686    -1.82502997     0.66902953                          
 INPUT CARD>C     6.0     2.22706366    -0.59190243     0.93842930                          
 INPUT CARD>C     6.0     2.96221757     0.59104538     0.75500447                          
 INPUT CARD>C     6.0     4.50821018     0.48476231     1.90912068                          
 INPUT CARD>C     6.0     4.43363762    -0.75920790     2.55878186                          
 INPUT CARD>C     6.0     4.46299267    -1.89321661     1.72498524                          
 INPUT CARD>C     6.0     5.50658512    -1.83956349     0.63136226                          
 INPUT CARD>C     6.0     6.04085922    -0.70348954     0.23448017                          
 INPUT CARD>C     6.0     5.61647749     0.61190104     0.84786385                          
 INPUT CARD>O     8.0     6.10494089     1.68721175     0.53060788                          
 INPUT CARD>H     1.0     2.30188084    -2.72140193     0.94839722                          
 INPUT CARD>H     1.0     3.33670139    -1.92987227    -0.29182470                          
 INPUT CARD>H     1.0     1.46468663    -0.58192265     1.70890796                          
 INPUT CARD>H     1.0     3.49621439     0.69232553    -0.18292575                          
 INPUT CARD>H     1.0     2.49583411     1.52196193     1.06024396                          
 INPUT CARD>H     1.0     4.41724682     1.37522995     2.52511191                          
 INPUT CARD>H     1.0     3.93374729    -0.82433951     3.51743984                          
 INPUT CARD>H     1.0     4.37889385    -2.86557007     2.20173788                          
 INPUT CARD>H     1.0     5.79848003    -2.78453279     0.18612599                          
 INPUT CARD>H     1.0     6.80961990    -0.66149646    -0.52580959                          
 INPUT CARD> $END                                                                           
 INPUT CARD>                                                                                
 INPUT CARD> $HESS                                                                          
 INPUT CARD>ENERGY IS     -416.0940646447 E(NUC) IS      511.4280047907                     
 INPUT CARD> 1  1 3.61877298E-01 1.17492344E-01-3.69117865E-01-1.63978051E-01-3.04050805E-02
 INPUT CARD> 1  2 7.96868809E-02 1.43001690E-01 4.51993263E-02 3.75619370E-02-7.42408644E-02
 INPUT CARD> 1  3 7.20979546E-02-9.35972212E-02-2.59224721E-02-1.55776397E-01-3.97613352E-02
 INPUT CARD> 1  4 1.08679424E-01 7.33327502E-02 1.39432264E-01-4.90719076E-02-5.87478306E-03
 INPUT CARD> 1  5-3.15910365E-03-3.03915294E-04 8.81092258E-03-5.70582764E-03 6.76447621E-03
 INPUT CARD> 1  6-3.44652150E-04 7.78012070E-03 4.43090010E-04 1.35885179E-03-3.25265101E-03
 INPUT CARD> 1  7-1.60673207E-01-1.61000361E-01 6.99337621E-02-1.16214167E-01 1.24042246E-02
 INPUT CARD> 1  8 1.91539185E-01-4.96773237E-03 2.69686056E-02 9.87654897E-04-1.49059302E-02
 INPUT CARD> 1  9 3.10385150E-03-9.56277672E-03-5.12700138E-03-4.55038875E-03-1.54935117E-03
 INPUT CARD> 1 10 5.74741138E-03-7.78335889E-04 2.16489253E-03-6.76259044E-04 6.74976909E-04
 INPUT CARD> 1 11 9.68691378E-04-1.48960088E-02-2.25047866E-03-7.32213850E-03 1.61925625E-03
 INPUT CARD> 1 12-3.55762189E-05 8.09437953E-04 2.84483954E-03-4.28491113E-04 2.16459216E-03
 INPUT CARD> 2  1 1.17492344E-01 8.97414752E-01 7.47978923E-02 1.38619114E-01-3.35741650E-01
 INPUT CARD> 2  2-8.46186288E-02-6.33316578E-02-8.03147564E-02-3.87202143E-02 4.58819420E-02
 INPUT CARD> 2  3-4.69902589E-02 5.38711815E-02 5.78752189E-03 7.35033254E-02 1.53003112E-02
 INPUT CARD> 2  4-8.12038464E-02-7.82899073E-02-6.98109866E-02 7.69886306E-03 1.41248850E-03
 INPUT CARD> 2  5 1.49579889E-04-3.57402275E-04-2.62856428E-03 2.26926019E-03-5.56878085E-03
    1000000 WORDS OF MEMORY AVAILABLE

     BASIS OPTIONS
     -------------
     GBASIS=STO          IGAUSS=       3      POLAR=NONE    
     NDFUNC=       0     NFFUNC=       0     DIFFSP=       F
     NPFUNC=       0      DIFFS=       F     BASNAM=        


     RUN TITLE
     ---------
 Title                                                                           

 THE POINT GROUP OF THE MOLECULE IS C1      
 THE ORDER OF THE PRINCIPAL AXIS IS     0

 ATOM      ATOMIC                      COORDINATES (BOHR)
           CHARGE         X                   Y                   Z
 C           6.0     5.3791557821       -3.4488065627        1.2642824894
 C           6.0     4.2085400746       -1.1185334042        1.7733742358
 C           6.0     5.5977795233        1.1169138145        1.4267515678
 C           6.0     8.5192819353        0.9160679351        3.6077149627
 C           6.0     8.3783602307       -1.4346948987        4.8353965778
 C           6.0     8.4338332315       -3.5776606283        3.2597494365
 C           6.0    10.4059370049       -3.4762709331        1.1931016704
 C           6.0    11.4155686562       -1.3294024658        0.4431032709
 C           6.0    10.6136034723        1.1563252972        1.6022303514
 O           8.0    11.5366654533        3.1883678908        1.0027035001
 H           1.0     4.3499240440       -5.1427039502        1.7922108733
 H           1.0     6.3054513300       -3.6469297816       -0.5514687194
 H           1.0     2.7678563886       -1.0996743545        3.2293677826
 H           1.0     6.6068871914        1.3083055460       -0.3456795436
 H           1.0     4.7164425787        2.8760910114        2.0035705645
 H           1.0     8.3473861099        2.5988077756        4.7717695982
 H           1.0     7.4337044830       -1.5577757948        6.6469974759
 H           1.0     8.2749095058       -5.4151422309        4.1606812900
 H           1.0    10.9575384020       -5.2620039769        0.3517271203
 H           1.0    12.8683156915       -1.2500470512       -0.9936360468

          INTERNUCLEAR DISTANCES (ANGS.)
          ------------------------------

                1 C          2 C          3 C          4 C          5 C     

   1 C       0.0000000    1.4060279 *  2.4203711 *  3.1038940    2.6881334 *
   2 C       1.4060279 *  0.0000000    1.4047994 *  2.7027908 *  2.7427180 *
   3 C       2.4203711 *  1.4047994 *  0.0000000    1.9321940 *  2.6910730 *
   4 C       3.1038940    2.7027908 *  1.9321940 *  0.0000000    1.4053763 *
   5 C       2.6881334 *  2.7427180 *  2.6910730 *  1.4053763 *  0.0000000  
   6 C       1.9320077 *  2.7039725 *  3.0601873    2.3855260 *  1.4078545 *
   7 C       2.6603646 *  3.5222449    3.5209307    2.8340624 *  2.4562840 *
   8 C       3.4132749    3.8798238    3.3800593    2.5622990 *  2.8264190 *
   9 C       3.6936758    3.5979815    2.6559657 *  1.5397035 *  2.4912427 *
  10 O       4.7929390    4.5164822    3.3359623    2.4281127 *  3.5905032  
  11 H       1.0854346 *  2.1308367 *  3.3831572    4.0087863    3.3148048  
  12 H       1.0837453 *  2.1295502 *  2.7551979 *  3.4708866    3.2710368  
  13 H       2.1298229 *  1.0839537 *  2.1280002 *  3.2312440    3.0932807  
  14 H       2.7358729 *  2.1254228 *  1.0840311 *  2.3332116 *  3.2407827  
  15 H       3.3879771    2.1343615 *  1.0850301 *  2.4178569 *  3.3473025  
  16 H       4.0191873    3.3442598    2.4218456 *  1.0865782 *  2.1347663 *
  17 H       3.2088738    3.1013048    3.2524196    2.1518470 *  1.0831240 *
  18 H       2.4041770 *  3.3757794    4.0060204    3.3655720    2.1371099 *
  19 H       3.1413164    4.2577697    4.4455073    3.9143068    3.4050303  
  20 H       4.2997159    4.8113055    4.2440370    3.5410848    3.8948098  

                6 C          7 C          8 C          9 C         10 O     

   1 C       1.9320077 *  2.6603646 *  3.4132749    3.6936758    4.7929390  
   2 C       2.7039725 *  3.5222449    3.8798238    3.5979815    4.5164822  
   3 C       3.0601873    3.5209307    3.3800593    2.6559657 *  3.3359623  
   4 C       2.3855260 *  2.8340624 *  2.5622990 *  1.5397035 *  2.4281127 *
   5 C       1.4078545 *  2.4562840 *  2.8264190 *  2.4912427 *  3.5905032  
   6 C       0.0000000    1.5126054 *  2.4752209 *  2.8940428 *  4.1160659  
   7 C       1.5126054 *  0.0000000    1.3166732 *  2.4634585 *  3.5785926  
   8 C       2.4752209 *  1.3166732 *  0.0000000    1.5121481 *  2.4098238 *
   9 C       2.8940428 *  2.4634585 *  1.5121481 *  0.0000000    1.2229231 *
  10 O       4.1160659    3.5785926    2.4098238 *  1.2229231 *  0.0000000  
  11 H       2.4411850 *  3.3389040    4.3083184    4.7018684    5.8372672  
  12 H       2.3102809 *  2.3598359 *  3.0155399    3.5995667    4.6284816  
  13 H       3.2725509    4.3680326    4.8093733    4.4049948    5.2980488  
  14 H       3.3555644    3.3339342    2.9321911 *  2.3589216 *  2.8817326 *
  15 H       3.9968786    4.5330359    4.2663477    3.2575652    3.6515029  
  16 H       3.3652694    3.8868808    3.4934490    2.1986328 *  2.6312906 *
  17 H       2.1530194 *  3.4400498    3.9028643    3.4671319    4.4657739  
  18 H       1.0862030 *  2.1887112 *  3.3625621    3.9315892    5.1477894  
  19 H       2.2239737 *  1.0846220 *  2.0956686 *  3.4650808    4.4954516  
  20 H       3.4770492    2.1035181 *  1.0820337 *  2.2208351 *  2.6700226 *

               11 H         12 H         13 H         14 H         15 H     

   1 C       1.0854346 *  1.0837453 *  2.1298229 *  2.7358729 *  3.3879771  
   2 C       2.1308367 *  2.1295502 *  1.0839537 *  2.1254228 *  2.1343615 *
   3 C       3.3831572    2.7551979 *  2.1280002 *  1.0840311 *  1.0850301 *
   4 C       4.0087863    3.4708866    3.2312440    2.3332116 *  2.4178569 *
   5 C       3.3148048    3.2710368    3.0932807    3.2407827    3.3473025  
   6 C       2.4411850 *  2.3102809 *  3.2725509    3.3555644    3.9968786  
   7 C       3.3389040    2.3598359 *  4.3680326    3.3339342    4.5330359  
   8 C       4.3083184    3.0155399    4.8093733    2.9321911 *  4.2663477  
   9 C       4.7018684    3.5995667    4.4049948    2.3589216 *  3.2575652  
  10 O       5.8372672    4.6284816    5.2980488    2.8817326 *  3.6515029  
  11 H       0.0000000    1.7987560 *  2.4200501 *  3.7894405    4.2492663  
  12 H       1.7987560 *  0.0000000    3.0535780    2.6293012 *  3.8013559  
  13 H       2.4200501 *  3.0535780    0.0000000    3.0544800    2.4311233 *
  14 H       3.7894405    2.6293012 *  3.0544800    0.0000000    1.7984794 *
  15 H       4.2492663    3.8013559    2.4311233 *  1.7984794 *  0.0000000  
  16 H       4.8726990    4.4750878    3.6351406    2.9407698 *  2.4205774 *
  17 H       3.5863371    4.0111299    3.0701489    4.0229856    3.6892460  
  18 H       2.4301503 *  2.8599912 *  3.7350409    4.3731413    4.9091098  
  19 H       3.5792805    2.6493840 *  5.0943225    4.1863074    5.4970400  
  20 H       5.1707067    3.7046848    5.7938421    3.5957001    5.0883990  

               16 H         17 H         18 H         19 H         20 H     

   1 C       4.0191873    3.2088738    2.4041770 *  3.1413164    4.2997159  
   2 C       3.3442598    3.1013048    3.3757794    4.2577697    4.8113055  
   3 C       2.4218456 *  3.2524196    4.0060204    4.4455073    4.2440370  
   4 C       1.0865782 *  2.1518470 *  3.3655720    3.9143068    3.5410848  
   5 C       2.1347663 *  1.0831240 *  2.1371099 *  3.4050303    3.8948098  
   6 C       3.3652694    2.1530194 *  1.0862030 *  2.2239737 *  3.4770492  
   7 C       3.8868808    3.4400498    2.1887112 *  1.0846220 *  2.1035181 *
   8 C       3.4934490    3.9028643    3.3625621    2.0956686 *  1.0820337 *
   9 C       2.1986328 *  3.4671319    3.9315892    3.4650808    2.2208351 *
  10 O       2.6312906 *  4.4657739    5.1477894    4.4954516    2.6700226 *
  11 H       4.8726990    3.5863371    2.4301503 *  3.5792805    5.1707067  
  12 H       4.4750878    4.0111299    2.8599912 *  2.6493840 *  3.7046848  
  13 H       3.6351406    3.0701489    3.7350409    5.0943225    5.7938421  
  14 H       2.9407698 *  4.0229856    4.3731413    4.1863074    3.5957001  
  15 H       2.4205774 *  3.6892460    4.9091098    5.4970400    5.0883990  
  16 H       0.0000000    2.4610145 *  4.2532842    4.9681270    4.3794778  
  17 H       2.4610145 *  0.0000000    2.4689774 *  4.2915309    4.9643758  
  18 H       4.2532842    2.4689774 *  0.0000000    2.4666745 *  4.2668355  
  19 H       4.9681270    4.2915309    2.4666745 *  0.0000000    2.4569370 *
  20 H       4.3794778    4.9643758    4.2668355    2.4569370 *  0.0000000  

  * ... LESS THAN  3.000


     ATOMIC BASIS SET
     ----------------
 THE CONTRACTED PRIMITIVE FUNCTIONS HAVE BEEN UNNORMALIZED
 THE CONTRACTED BASIS FUNCTIONS ARE NOW NORMALIZED TO UNITY

  SHELL TYPE  PRIMITIVE        EXPONENT          CONTRACTION COEFFICIENT(S)

 C         

      1   S       1            71.6168373    0.154328967295
      1   S       2            13.0450963    0.535328142282
      1   S       3             3.5305122    0.444634542185

      2   L       4             2.9412494   -0.099967229187    0.155916274999
      2   L       5             0.6834831    0.399512826089    0.607683718598
      2   L       6             0.2222899    0.700115468880    0.391957393099

 C         

      3   S       7            71.6168373    0.154328967295
      3   S       8            13.0450963    0.535328142282
      3   S       9             3.5305122    0.444634542185

      4   L      10             2.9412494   -0.099967229187    0.155916274999
      4   L      11             0.6834831    0.399512826089    0.607683718598
      4   L      12             0.2222899    0.700115468880    0.391957393099

 C         

      5   S      13            71.6168373    0.154328967295
      5   S      14            13.0450963    0.535328142282
      5   S      15             3.5305122    0.444634542185

      6   L      16             2.9412494   -0.099967229187    0.155916274999
      6   L      17             0.6834831    0.399512826089    0.607683718598
      6   L      18             0.2222899    0.700115468880    0.391957393099

 C         

      7   S      19            71.6168373    0.154328967295
      7   S      20            13.0450963    0.535328142282
      7   S      21             3.5305122    0.444634542185

      8   L      22             2.9412494   -0.099967229187    0.155916274999
      8   L      23             0.6834831    0.399512826089    0.607683718598
      8   L      24             0.2222899    0.700115468880    0.391957393099

 C         

      9   S      25            71.6168373    0.154328967295
      9   S      26            13.0450963    0.535328142282
      9   S      27             3.5305122    0.444634542185

     10   L      28             2.9412494   -0.099967229187    0.155916274999
     10   L      29             0.6834831    0.399512826089    0.607683718598
     10   L      30             0.2222899    0.700115468880    0.391957393099

 C         

     11   S      31            71.6168373    0.154328967295
     11   S      32            13.0450963    0.535328142282
     11   S      33             3.5305122    0.444634542185

     12   L      34             2.9412494   -0.099967229187    0.155916274999
     12   L      35             0.6834831    0.399512826089    0.607683718598
     12   L      36             0.2222899    0.700115468880    0.391957393099

 C         

     13   S      37            71.6168373    0.154328967295
     13   S      38            13.0450963    0.535328142282
     13   S      39             3.5305122    0.444634542185

     14   L      40             2.9412494   -0.099967229187    0.155916274999
     14   L      41             0.6834831    0.399512826089    0.607683718598
     14   L      42             0.2222899    0.700115468880    0.391957393099

 C         

     15   S      43            71.6168373    0.154328967295
     15   S      44            13.0450963    0.535328142282
     15   S      45             3.5305122    0.444634542185

     16   L      46             2.9412494   -0.099967229187    0.155916274999
     16   L      47             0.6834831    0.399512826089    0.607683718598
     16   L      48             0.2222899    0.700115468880    0.391957393099

 C         

     17   S      49            71.6168373    0.154328967295
     17   S      50            13.0450963    0.535328142282
     17   S      51             3.5305122    0.444634542185

     18   L      52             2.9412494   -0.099967229187    0.155916274999
     18   L      53             0.6834831    0.399512826089    0.607683718598
     18   L      54             0.2222899    0.700115468880    0.391957393099

 O         

     19   S      55           130.7093214    0.154328967295
     19   S      56            23.8088661    0.535328142282
     19   S      57             6.4436083    0.444634542185

     20   L      58             5.0331513   -0.099967229187    0.155916274999
     20   L      59             1.1695961    0.399512826089    0.607683718598
     20   L      60             0.3803890    0.700115468880    0.391957393099

 H         

     21   S      61             3.4252509    0.154328967295
     21   S      62             0.6239137    0.535328142282
     21   S      63             0.1688554    0.444634542185

 H         

     22   S      64             3.4252509    0.154328967295
     22   S      65             0.6239137    0.535328142282
     22   S      66             0.1688554    0.444634542185

 H         

     23   S      67             3.4252509    0.154328967295
     23   S      68             0.6239137    0.535328142282
     23   S      69             0.1688554    0.444634542185

 H         

     24   S      70             3.4252509    0.154328967295
     24   S      71             0.6239137    0.535328142282
     24   S      72             0.1688554    0.444634542185

 H         

     25   S      73             3.4252509    0.154328967295
     25   S      74             0.6239137    0.535328142282
     25   S      75             0.1688554    0.444634542185

 H         

     26   S      76             3.4252509    0.154328967295
     26   S      77             0.6239137    0.535328142282
     26   S      78             0.1688554    0.444634542185

 H         

     27   S      79             3.4252509    0.154328967295
     27   S      80             0.6239137    0.535328142282
     27   S      81             0.1688554    0.444634542185

 H         

     28   S      82             3.4252509    0.154328967295
     28   S      83             0.6239137    0.535328142282
     28   S      84             0.1688554    0.444634542185

 H         

     29   S      85             3.4252509    0.154328967295
     29   S      86             0.6239137    0.535328142282
     29   S      87             0.1688554    0.444634542185

 H         

     30   S      88             3.4252509    0.154328967295
     30   S      89             0.6239137    0.535328142282
     30   S      90             0.1688554    0.444634542185

 TOTAL NUMBER OF BASIS SET SHELLS             =   30
 NUMBER OF CARTESIAN GAUSSIAN BASIS FUNCTIONS =   60
 NUMBER OF ELECTRONS                          =   72
 CHARGE OF MOLECULE                           =    0
 SPIN MULTIPLICITY                            =    1
 NUMBER OF OCCUPIED ORBITALS (ALPHA)          =   36
 NUMBER OF OCCUPIED ORBITALS (BETA )          =   36
 TOTAL NUMBER OF ATOMS                        =   20
 THE NUCLEAR REPULSION ENERGY IS      511.4280047907

     $CONTRL OPTIONS
     ---------------
 SCFTYP=RHF          RUNTYP=IRC          EXETYP=RUN     
 MPLEVL=       0     CITYP =NONE         CCTYP =NONE         VBTYP =NONE    
 DFTTYP=NONE         TDDFT =NONE    
 MULT  =       1     ICHARG=       0     NZVAR =       0     COORD =UNIQUE  
 PP    =NONE         RELWFN=NONE         LOCAL =NONE         NUMGRD=       F
 ISPHER=      -1     NOSYM =       0     MAXIT =      30     UNITS =ANGS    
 PLTORB=       F     MOLPLT=       F     AIMPAC=       F     FRIEND=        
 NPRINT=       7     IREST =       0     GEOM  =INPUT   
 NORMF =       0     NORMP =       0     ITOL  =      20     ICUT  =       9
 INTTYP=BEST         GRDTYP=BEST         QMTTOL= 1.0E-06

     $SYSTEM OPTIONS
     ---------------
  REPLICATED MEMORY=     1000000 WORDS (ON EVERY NODE).
 DISTRIBUTED MEMDDI=           0 MILLION WORDS IN AGGREGATE,
 MEMDDI DISTRIBUTED OVER   1 PROCESSORS IS           0 WORDS/PROCESSOR.
 TOTAL MEMORY REQUESTED ON EACH PROCESSOR=     1000000 WORDS.
 TIMLIM=      525600.00 MINUTES, OR     365.0 DAYS.
 PARALL= F  BALTYP=  DLB     KDIAG=    0  COREFL= F
 MXSEQ2=     300 MXSEQ3=     150  mem10=         0

          ----------------
          PROPERTIES INPUT
          ----------------

     MOMENTS            FIELD           POTENTIAL          DENSITY
 IEMOM =       1   IEFLD =       0   IEPOT =       0   IEDEN =       0
 WHERE =COMASS     WHERE =NUCLEI     WHERE =NUCLEI     WHERE =NUCLEI  
 OUTPUT=BOTH       OUTPUT=BOTH       OUTPUT=BOTH       OUTPUT=BOTH    
 IEMINT=       0   IEFINT=       0                     IEDINT=       0
                                                       MORB  =       0
          EXTRAPOLATION IN EFFECT
          SOSCF IN EFFECT
 ORBITAL PRINTING OPTION: NPREO=     1    60     2     1

     -------------------------------
     INTEGRAL TRANSFORMATION OPTIONS
     -------------------------------
     NWORD  =            0
     CUTOFF = 1.0E-09     MPTRAN =       0
     DIRTRF =       F     AOINTS =DUP     

          ----------------------
          INTEGRAL INPUT OPTIONS
          ----------------------
 NOPK  =       1 NORDER=       0 SCHWRZ=       T

     ------------------------------------------
     THE POINT GROUP IS C1 , NAXIS= 0, ORDER= 1
     ------------------------------------------

     DIMENSIONS OF THE SYMMETRY SUBSPACES ARE
 A   =   60

 ..... DONE SETTING UP THE RUN .....
 STEP CPU TIME =     0.13 TOTAL CPU TIME =          0.1 (      0.0 MIN)
 TOTAL WALL CLOCK TIME=          0.2 SECONDS, CPU UTILIZATION IS    59.09%

          -----------------------------
          INTRINSIC REACTION COORDINATE
          -----------------------------
          PACE   =GS2     
          STRIDE = 0.10000 BOHR*SQRT(AMU)
          NPOINT =     100
          NEXTPT =       0
          STOTAL =  0.0000 BOHR*SQRT(AMU)
          SAB    =  0.0000 BOHR*SQRT(AMU)
          NPRT   =       0
          NPUN   =       0

          SADDLE =       T
          TSENGY =       T
          FORWRD =       T
          EVIB   = 0.00050 HARTREE
          FREQ   =     0.0 CM**-1

          STABLZ =       F
          ELBOW  =  175.00 DEGREES
          DELTA  = 0.02500 BOHR

          READQB =       F
          EB     =        0.0000000000 HARTREES
          GBNORM =        0.0000000000 HARTREES/SQRT(AMU)-BOHR

          GCUT   = 0.0000500 HARTREES/SQRT(AMU)-BOHR
          RCUT   = 0.0005000 BOHR
          ACUT   =    5.00 DEGREES
          MXOPT  =      20
          IHUPD  =       2

 ATOMIC MASSES USED (IN AMU) ARE
     C             12.0000
     C             12.0000
     C             12.0000
     C             12.0000
     C             12.0000
     C             12.0000
     C             12.0000
     C             12.0000
     C             12.0000
     O             15.9949
     H              1.0078
     H              1.0078
     H              1.0078
     H              1.0078
     H              1.0078
     H              1.0078
     H              1.0078
     H              1.0078
     H              1.0078
     H              1.0078

 JUMP AWAY FROM SADDLE POINT WILL BE FOUND FROM THE INPUT HESSIAN MATRIX

 COMPUTING WAVEFUNCTION AT TRANSITION STATE...

          ********************
          1 ELECTRON INTEGRALS
          ********************
 ...... END OF ONE-ELECTRON INTEGRALS ......
 STEP CPU TIME =     0.03 TOTAL CPU TIME =          0.2 (      0.0 MIN)
 TOTAL WALL CLOCK TIME=          0.4 SECONDS, CPU UTILIZATION IS    43.24%

          -------------
          GUESS OPTIONS
          -------------
          GUESS =HUCKEL            NORB  =       0          NORDER=       0
          MIX   =       F          PRTMO =       F          PUNMO =       F
          TOLZ  = 1.0E-08          TOLE  = 1.0E-05
          SYMDEN=       F          PURIFY=       F

 INITIAL GUESS ORBITALS GENERATED BY HUCKEL   ROUTINE.
 HUCKEL GUESS REQUIRES     53820 WORDS.

 SYMMETRIES FOR INITIAL GUESS ORBITALS FOLLOW.   BOTH SET(S).
    36 ORBITALS ARE OCCUPIED (   10 CORE ORBITALS).
    11=A       12=A       13=A       14=A       15=A       16=A       17=A   
    18=A       19=A       20=A       21=A       22=A       23=A       24=A   
    25=A       26=A       27=A       28=A       29=A       30=A       31=A   
    32=A       33=A       34=A       35=A       36=A       37=A       38=A   
    39=A       40=A       41=A       42=A       43=A       44=A       45=A   
    46=A   
 ...... END OF INITIAL ORBITAL SELECTION ......
 STEP CPU TIME =     0.02 TOTAL CPU TIME =          0.2 (      0.0 MIN)
 TOTAL WALL CLOCK TIME=          0.4 SECONDS, CPU UTILIZATION IS    46.15%

                    ----------------------
                    AO INTEGRAL TECHNOLOGY
                    ----------------------
     S,P,L SHELL ROTATED AXIS INTEGRALS, REPROGRAMMED BY
        KAZUYA ISHIMURA (IMS) AND JOSE SIERRA (SYNSTAR).
     S,P,D,L SHELL ROTATED AXIS INTEGRALS PROGRAMMED BY
        KAZUYA ISHIMURA (INSTITUTE FOR MOLECULAR SCIENCE).
     S,P,D,F,G SHELL TO TOTAL QUARTET ANGULAR MOMENTUM SUM 5,
        ERIC PROGRAM BY GRAHAM FLETCHER (ELORET AND NASA ADVANCED
        SUPERCOMPUTING DIVISION, AMES RESEARCH CENTER).
     S,P,D,F,G,L SHELL GENERAL RYS QUADRATURE PROGRAMMED BY
        MICHEL DUPUIS (PACIFIC NORTHWEST NATIONAL LABORATORY).

          --------------------
          2 ELECTRON INTEGRALS
          --------------------

 THE -PK- OPTION IS OFF, THE INTEGRALS ARE NOT IN SUPERMATRIX FORM.
 STORING   15000 INTEGRALS/RECORD ON DISK, USING 12 BYTES/INTEGRAL.
 TWO ELECTRON INTEGRAL EVALUATION REQUIRES   89821 WORDS OF MEMORY.
 SCHWARZ INEQUALITY OVERHEAD:      1797 INTEGRALS, T=        0.00
 II,JST,KST,LST =  1  1  1  1 NREC =         1 INTLOC =    1
 II,JST,KST,LST =  2  1  1  1 NREC =         1 INTLOC =    2
 II,JST,KST,LST =  3  1  1  1 NREC =         1 INTLOC =   34
 II,JST,KST,LST =  4  1  1  1 NREC =         1 INTLOC =  144
 II,JST,KST,LST =  5  1  1  1 NREC =         1 INTLOC = 1366
 II,JST,KST,LST =  6  1  1  1 NREC =         1 INTLOC = 1960
 II,JST,KST,LST =  7  1  1  1 NREC =         1 INTLOC = 6850
 II,JST,KST,LST =  8  1  1  1 NREC =         1 INTLOC = 8470
 II,JST,KST,LST =  9  1  1  1 NREC =         2 INTLOC = 5895
 II,JST,KST,LST = 10  1  1  1 NREC =         2 INTLOC = 9697
 II,JST,KST,LST = 11  1  1  1 NREC =         4 INTLOC = 5074
 II,JST,KST,LST = 12  1  1  1 NREC =         4 INTLOC =12194
 II,JST,KST,LST = 13  1  1  1 NREC =         7 INTLOC =12334
 II,JST,KST,LST = 14  1  1  1 NREC =         8 INTLOC = 8650
 II,JST,KST,LST = 15  1  1  1 NREC =        13 INTLOC = 5979
 II,JST,KST,LST = 16  1  1  1 NREC =        14 INTLOC = 8277
 II,JST,KST,LST = 17  1  1  1 NREC =        21 INTLOC =11900
 II,JST,KST,LST = 18  1  1  1 NREC =        23 INTLOC = 7400
 II,JST,KST,LST = 19  1  1  1 NREC =        33 INTLOC =14102
 II,JST,KST,LST = 20  1  1  1 NREC =        35 INTLOC = 9343
 II,JST,KST,LST = 21  1  1  1 NREC =        47 INTLOC =10132
 II,JST,KST,LST = 22  1  1  1 NREC =        51 INTLOC = 5664
 II,JST,KST,LST = 23  1  1  1 NREC =        55 INTLOC = 9842
 II,JST,KST,LST = 24  1  1  1 NREC =        59 INTLOC =13588
 II,JST,KST,LST = 25  1  1  1 NREC =        64 INTLOC =12482
 II,JST,KST,LST = 26  1  1  1 NREC =        69 INTLOC =13050
 II,JST,KST,LST = 27  1  1  1 NREC =        75 INTLOC = 4777
 II,JST,KST,LST = 28  1  1  1 NREC =        81 INTLOC =   14
 II,JST,KST,LST = 29  1  1  1 NREC =        86 INTLOC =12908
 II,JST,KST,LST = 30  1  1  1 NREC =        93 INTLOC =  218
 SCHWARZ INEQUALITY TEST SKIPPED       24072 INTEGRAL BLOCKS.
 TOTAL NUMBER OF NONZERO TWO-ELECTRON INTEGRALS =             1477603
         99 INTEGRAL RECORDS WERE STORED ON DISK FILE  8.
  ...... END OF TWO-ELECTRON INTEGRALS .....
 STEP CPU TIME =     0.29 TOTAL CPU TIME =          0.5 (      0.0 MIN)
 TOTAL WALL CLOCK TIME=          0.7 SECONDS, CPU UTILIZATION IS    68.12%

          --------------------------
                 RHF SCF CALCULATION
          --------------------------

     NUCLEAR ENERGY =       511.4280047907
     MAXIT =   30     NPUNCH=    2
     EXTRAP=T  DAMP=F  SHIFT=F  RSTRCT=F  DIIS=F  DEM=F  SOSCF=T
     DENSITY MATRIX CONV=  1.00E-05
     SOSCF WILL OPTIMIZE     864 ORBITAL ROTATIONS, SOGTOL=   0.250
     MEMORY REQUIRED FOR RHF ITERS=     59496 WORDS.

 ITER EX DEM     TOTAL ENERGY        E CHANGE  DENSITY CHANGE     ORB. GRAD
   1  0  0     -415.5142767918  -415.5142767918   0.525858974   0.000000000
          ---------------START SECOND ORDER SCF---------------
   2  1  0     -416.0270652296    -0.5127884377   0.250402187   0.066086603
   3  2  0     -416.0575236311    -0.0304584016   0.113768588   0.049838257
   4  3  0     -416.0929944237    -0.0354707925   0.021372838   0.007795877
   5  4  0     -416.0939323540    -0.0009379304   0.004961775   0.003107837
   6  5  0     -416.0940491717    -0.0001168176   0.001830419   0.000765411
   7  6  0     -416.0940624306    -0.0000132589   0.000682334   0.000260806
   8  7  0     -416.0940643931    -0.0000019625   0.000312993   0.000072936
   9  8  0     -416.0940645959    -0.0000002028   0.000192025   0.000030753
  10  9  0     -416.0940646365    -0.0000000405   0.000079614   0.000016899
  11 10  0     -416.0940646432    -0.0000000068   0.000025176   0.000004080
  12 11  0     -416.0940646446    -0.0000000013   0.000009822   0.000001594
  13 12  0     -416.0940646447    -0.0000000002   0.000003316   0.000000697

          -----------------
          DENSITY CONVERGED
          -----------------
     TIME TO FORM FOCK OPERATORS=       0.3 SECONDS (       0.0 SEC/ITER)
     TIME TO SOLVE SCF EQUATIONS=       0.1 SECONDS (       0.0 SEC/ITER)

 FINAL RHF ENERGY IS     -416.0940646447 AFTER  13 ITERATIONS

          ------------
          EIGENVECTORS
          ------------

                      1          2          3          4          5
                  -20.2645   -11.1197   -11.0567   -11.0499   -11.0469
                     A          A          A          A          A   
    1  C  1  S   -0.000000   0.000023  -0.026123  -0.005787   0.004817
    2  C  1  S    0.000003  -0.000004  -0.004001   0.000030   0.000147
    3  C  1  X   -0.000001   0.000014  -0.002260  -0.000228  -0.000022
    4  C  1  Y   -0.000002   0.000005   0.000047  -0.000102  -0.000002
    5  C  1  Z    0.000001  -0.000007  -0.001505  -0.000177  -0.000029
    6  C  2  S   -0.000001   0.000011  -0.000490   0.000059  -0.001582
    7  C  2  S    0.000012  -0.000036   0.000325   0.000058   0.002287
    8  C  2  X   -0.000000   0.000028   0.000134   0.000060   0.000811
    9  C  2  Y    0.000010  -0.000058  -0.000177   0.000000   0.001334
   10  C  2  Z    0.000003  -0.000012  -0.000013  -0.000016  -0.000190
   11  C  3  S   -0.000005  -0.000235  -0.000702   0.000850  -0.320646
   12  C  3  S   -0.000002   0.000319  -0.000025   0.000065  -0.014608
   13  C  3  X    0.000040  -0.000206  -0.000048   0.000024  -0.001689
   14  C  3  Y    0.000022   0.000002   0.000074   0.000023   0.000319
   15  C  3  Z    0.000012  -0.000177  -0.000007   0.000001  -0.001306
   16  C  4  S   -0.000024  -0.001691  -0.004271  -0.008201   0.938521
   17  C  4  S    0.000270  -0.005340  -0.000085  -0.000325   0.035016
   18  C  4  X    0.000139  -0.002954   0.000007  -0.000060   0.000325
   19  C  4  Y    0.000452  -0.000516   0.000142   0.000135  -0.000690
   20  C  4  Z   -0.000017   0.002665   0.000153   0.000087   0.000501
   21  C  5  S    0.000003  -0.000284   0.003096  -0.001096   0.004058
   22  C  5  S    0.000030   0.000056  -0.006845   0.000031  -0.006583
   23  C  5  X   -0.000058  -0.000046  -0.000155  -0.000120  -0.000282
   24  C  5  Y    0.000032   0.000003   0.003747   0.000052  -0.003894
   25  C  5  Z    0.000029   0.000013   0.002601   0.000064   0.001929
   26  C  6  S    0.000003  -0.000243   0.991558   0.018896   0.004178
   27  C  6  S    0.000006  -0.000053   0.036316  -0.004975   0.000158
   28  C  6  X   -0.000003  -0.000062   0.001297  -0.002919   0.000000
   29  C  6  Y   -0.000038  -0.000065   0.000619  -0.000279  -0.000145
   30  C  6  Z    0.000015   0.000049   0.000849   0.002908   0.000140
   31  C  7  S    0.000005  -0.000271  -0.018097   0.991816   0.008065
   32  C  7  S    0.000054   0.000108  -0.006636   0.035849   0.000220
   33  C  7  X    0.000052  -0.000056   0.002847   0.000639   0.000073
   34  C  7  Y   -0.000009   0.000034   0.000067   0.001451  -0.000137
   35  C  7  Z   -0.000056   0.000059  -0.003250  -0.000595  -0.000059
   36  C  8  S   -0.000025  -0.001006  -0.000980   0.020137  -0.001147
   37  C  8  S    0.000269  -0.005677   0.000303  -0.007398   0.000014
   38  C  8  X    0.000282   0.001011  -0.000090   0.001843   0.000063
   39  C  8  Y    0.000368  -0.003677  -0.000045   0.003952   0.000018
   40  C  8  Z   -0.000222  -0.001559   0.000141  -0.001363   0.000005
   41  C  9  S    0.000547   0.992569   0.000254   0.000332   0.002457
   42  C  9  S   -0.007208   0.032683  -0.000002   0.000161  -0.005396
   43  C  9  X   -0.002551   0.000194   0.000027   0.000063   0.002765
   44  C  9  Y   -0.005616   0.000310   0.000136   0.000127   0.000271
   45  C  9  Z    0.001667  -0.000288   0.000018  -0.000049  -0.002894
   46  O 10  S    0.994266   0.000160   0.000005   0.000013  -0.000018
   47  O 10  S    0.026004  -0.005797  -0.000052  -0.000116   0.000222
   48  O 10  X   -0.002250   0.000684   0.000014   0.000015  -0.000129
   49  O 10  Y   -0.004942   0.001520   0.000026   0.000063  -0.000026
   50  O 10  Z    0.001457  -0.000427  -0.000015  -0.000004   0.000173
   51  H 11  S   -0.000002   0.000002   0.000336  -0.000018  -0.000017
   52  H 12  S   -0.000002   0.000008   0.000336  -0.000975  -0.000033
   53  H 13  S   -0.000002   0.000007  -0.000001   0.000001  -0.000018
   54  H 14  S    0.000085  -0.001088   0.000005  -0.000049   0.002393
   55  H 15  S   -0.000007  -0.000036  -0.000022  -0.000016   0.002374
   56  H 16  S   -0.000178  -0.000019  -0.000094  -0.000002  -0.006631
   57  H 17  S   -0.000020  -0.000055   0.000086  -0.000084   0.000075
   58  H 18  S   -0.000015  -0.000024  -0.006942  -0.000096  -0.000141
   59  H 19  S   -0.000022  -0.000038   0.000207  -0.006826  -0.000109
   60  H 20  S   -0.000191   0.000013  -0.000034   0.000010  -0.000063

                      6          7          8          9         10
                  -11.0460   -11.0458   -11.0267   -11.0150   -11.0080
                     A          A          A          A          A   
    1  C  1  S   -0.200407   0.971321  -0.000210   0.000876  -0.002489
    2  C  1  S   -0.007213   0.035459   0.000043   0.000284  -0.007132
    3  C  1  X    0.000129  -0.001239   0.000019  -0.000030   0.001948
    4  C  1  Y   -0.000217   0.000522  -0.000025  -0.000007  -0.004088
    5  C  1  Z    0.000185  -0.000833  -0.000040  -0.000095  -0.001007
    6  C  2  S    0.002289   0.003836   0.000073  -0.016899   0.991973
    7  C  2  S   -0.004897  -0.007961   0.000026  -0.001097   0.036619
    8  C  2  X   -0.001721  -0.002315   0.000005  -0.000515   0.002269
    9  C  2  Y   -0.004352   0.003176  -0.000000   0.000040  -0.000150
   10  C  2  Z    0.000409   0.001017   0.000008  -0.000482   0.001447
   11  C  3  S    0.919214   0.191302  -0.000272   0.000795  -0.002568
   12  C  3  S    0.032627   0.006917   0.000092   0.000295  -0.007150
   13  C  3  X   -0.001759  -0.000458   0.000028  -0.000038   0.002335
   14  C  3  Y   -0.000352   0.000040   0.000049   0.000018   0.003947
   15  C  3  Z   -0.001333  -0.000248  -0.000062  -0.000055  -0.000715
   16  C  4  S    0.315846   0.060358   0.001348  -0.003259   0.000512
   17  C  4  S    0.008668   0.001630   0.000232  -0.007194   0.000038
   18  C  4  X    0.002424   0.000517   0.000042   0.000363   0.000063
   19  C  4  Y   -0.000349  -0.000040   0.000045   0.004078   0.000144
   20  C  4  Z    0.001819   0.000423   0.000037  -0.002108  -0.000047
   21  C  5  S    0.000771  -0.000592  -0.002719   0.991965   0.017131
   22  C  5  S   -0.002075  -0.000481  -0.000213   0.036580   0.000147
   23  C  5  X   -0.000111  -0.000033  -0.000146  -0.001707   0.000549
   24  C  5  Y   -0.001226  -0.000208  -0.000014   0.000201  -0.000033
   25  C  5  Z    0.000580   0.000112   0.000172  -0.001939   0.000288
   26  C  6  S   -0.003405   0.027022   0.000634  -0.002284   0.000391
   27  C  6  S    0.000492  -0.001984   0.000394  -0.007128   0.000042
   28  C  6  X   -0.000443   0.002312   0.000123   0.000208   0.000033
   29  C  6  Y   -0.000090  -0.000138  -0.000082  -0.003717  -0.000147
   30  C  6  Z   -0.000201   0.001485  -0.000077  -0.002697  -0.000046
   31  C  7  S    0.000717   0.005550  -0.019612   0.001154  -0.000068
   32  C  7  S    0.000015   0.000180  -0.008948   0.000136   0.000008
   33  C  7  X    0.000025  -0.000007  -0.001917  -0.000075  -0.000025
   34  C  7  Y   -0.000044  -0.000040  -0.004064  -0.000144   0.000031
   35  C  7  Z    0.000002  -0.000068   0.001410  -0.000098  -0.000029
   36  C  8  S   -0.000202   0.000256   0.991965   0.002810  -0.000032
   37  C  8  S    0.000063   0.000027   0.036555   0.000039  -0.000015
   38  C  8  X   -0.000014  -0.000019  -0.000815   0.000067   0.000000
   39  C  8  Y    0.000027   0.000002  -0.001573  -0.000002   0.000002
   40  C  8  Z   -0.000021  -0.000017   0.000735  -0.000192  -0.000004
   41  C  9  S    0.001097   0.000195   0.001995   0.000354  -0.000008
   42  C  9  S   -0.001660  -0.000302  -0.005871   0.000110  -0.000015
   43  C  9  X    0.000872   0.000159  -0.001173  -0.000069  -0.000019
   44  C  9  Y    0.000098   0.000020   0.003659   0.000146  -0.000031
   45  C  9  Z   -0.000940  -0.000179   0.001668  -0.000073  -0.000038
   46  O 10  S   -0.000014  -0.000002  -0.000022   0.000008  -0.000000
   47  O 10  S    0.000105   0.000018   0.000248  -0.000084   0.000008
   48  O 10  X   -0.000080  -0.000016   0.000053   0.000045   0.000004
   49  O 10  Y   -0.000015  -0.000001  -0.000201   0.000025  -0.000005
   50  O 10  Z    0.000050   0.000006  -0.000081  -0.000003   0.000006
   51  H 11  S    0.001294  -0.006813  -0.000010  -0.000030   0.000098
   52  H 12  S    0.001383  -0.006825  -0.000093  -0.000065  -0.000011
   53  H 13  S    0.000034   0.000064  -0.000004   0.000130  -0.007015
   54  H 14  S   -0.006400  -0.001376  -0.000219  -0.000047  -0.000003
   55  H 15  S   -0.006349  -0.001435  -0.000019  -0.000042   0.000096
   56  H 16  S   -0.002071  -0.000414  -0.000098   0.000108  -0.000034
   57  H 17  S    0.000028   0.000006  -0.000042  -0.006928  -0.000106
   58  H 18  S   -0.000069  -0.000066  -0.000092   0.000097  -0.000047
   59  H 19  S   -0.000034   0.000003   0.000270  -0.000106  -0.000002
   60  H 20  S   -0.000024  -0.000008  -0.006866  -0.000079   0.000001

                     11         12         13         14         15
                   -1.3155    -1.0943    -1.0174    -0.9712    -0.9379
                     A          A          A          A          A   
    1  C  1  S   -0.000755  -0.059789  -0.097210   0.080167  -0.074558
    2  C  1  S    0.001830   0.158772   0.262380  -0.221551   0.213982
    3  C  1  X    0.000311   0.008951  -0.040261   0.021744   0.021129
    4  C  1  Y    0.000447   0.026507   0.067165  -0.030258  -0.022069
    5  C  1  Z    0.000149   0.011802   0.006715   0.008565   0.012383
    6  C  2  S   -0.001089  -0.059953  -0.141194   0.073241   0.017151
    7  C  2  S    0.002398   0.149291   0.366210  -0.194292  -0.046111
    8  C  2  X    0.000980   0.035999   0.061329  -0.021868  -0.008567
    9  C  2  Y    0.000529  -0.003699   0.004540   0.032787  -0.095059
   10  C  2  Z    0.000052  -0.000267  -0.005355   0.010202   0.000457
   11  C  3  S   -0.003421  -0.054250  -0.113337   0.017272   0.095705
   12  C  3  S    0.008301   0.143964   0.306967  -0.043923  -0.271856
   13  C  3  X    0.002911   0.002378  -0.037952   0.043500  -0.004403
   14  C  3  Y   -0.000028  -0.028736  -0.062303   0.035712  -0.003646
   15  C  3  Z    0.000226   0.009631   0.004010   0.018489   0.000468
   16  C  4  S   -0.021303  -0.088122  -0.014259  -0.130110   0.075473
   17  C  4  S    0.053390   0.231616   0.041433   0.361128  -0.217580
   18  C  4  X    0.019790   0.004616  -0.033214   0.012513  -0.017626
   19  C  4  Y    0.002404  -0.055168   0.008892  -0.056075  -0.035352
   20  C  4  Z   -0.018162   0.002359  -0.003796   0.044325   0.045605
   21  C  5  S   -0.005510  -0.106521   0.005211  -0.125185  -0.055111
   22  C  5  S    0.012542   0.267440  -0.013597   0.334631   0.150081
   23  C  5  X    0.001244  -0.000680  -0.017727  -0.005840  -0.013039
   24  C  5  Y    0.003869  -0.003438   0.019333   0.061446  -0.115943
   25  C  5  Z   -0.004186  -0.066012   0.007015  -0.037196  -0.018037
   26  C  6  S   -0.003185  -0.112356   0.030821  -0.014437  -0.131476
   27  C  6  S    0.007597   0.296679  -0.082969   0.035710   0.373976
   28  C  6  X    0.001393   0.021291  -0.055864  -0.016729  -0.010567
   29  C  6  Y    0.002447   0.050989  -0.002515   0.061781   0.003114
   30  C  6  Z   -0.000542  -0.004609   0.017236   0.085446   0.029383
   31  C  7  S   -0.005954  -0.101258   0.101126   0.099192  -0.000333
   32  C  7  S    0.014149   0.257811  -0.266158  -0.267077   0.004696
   33  C  7  X    0.001540  -0.016317  -0.024066  -0.033631  -0.081593
   34  C  7  Y    0.006544   0.047860  -0.058104  -0.046223  -0.076513
   35  C  7  Z   -0.000773   0.019907   0.009734   0.039981   0.072265
   36  C  8  S   -0.021556  -0.079546   0.099511   0.095197   0.091772
   37  C  8  S    0.052420   0.199607  -0.258319  -0.252528  -0.248486
   38  C  8  X   -0.008344  -0.038129   0.029959   0.018837   0.014537
   39  C  8  Y    0.023549  -0.036388   0.049910   0.068921  -0.019200
   40  C  8  Z    0.011581   0.032906  -0.028068  -0.005080  -0.014877
   41  C  9  S   -0.127526  -0.035240   0.023030  -0.013451   0.067230
   42  C  9  S    0.295209   0.097809  -0.066228   0.038137  -0.198404
   43  C  9  X    0.060635  -0.039703  -0.014090  -0.067440   0.052102
   44  C  9  Y    0.135462  -0.077673   0.063681   0.023738   0.103551
   45  C  9  Z   -0.040429   0.024965   0.014393   0.075485  -0.023284
   46  O 10  S   -0.214565   0.037890  -0.015668   0.010108  -0.047852
   47  O 10  S    0.749550  -0.141359   0.060119  -0.039615   0.191031
   48  O 10  X   -0.066956   0.001738  -0.007106  -0.015613   0.012124
   49  O 10  Y   -0.146315   0.006527   0.007124   0.008979   0.019314
   50  O 10  Z    0.042914  -0.001094   0.004914   0.018921  -0.004381
   51  H 11  S    0.000194   0.030071   0.057136  -0.056161   0.068438
   52  H 12  S    0.000434   0.038721   0.056040  -0.065721   0.062405
   53  H 13  S    0.000317   0.029481   0.083919  -0.047169  -0.011490
   54  H 14  S    0.003555   0.033581   0.070853  -0.010574  -0.085023
   55  H 15  S    0.001358   0.026504   0.067949  -0.005375  -0.080714
   56  H 16  S    0.008757   0.040205   0.014601   0.093311  -0.063524
   57  H 17  S    0.001499   0.049773   0.001790   0.086022   0.045334
   58  H 18  S    0.000807   0.055401  -0.016422   0.003986   0.117757
   59  H 19  S    0.001597   0.048258  -0.060381  -0.074624   0.007679
   60  H 20  S    0.008698   0.034039  -0.057382  -0.068561  -0.068001

                     16         17         18         19         20
                   -0.8528    -0.7758    -0.7541    -0.7087    -0.6569
                     A          A          A          A          A   
    1  C  1  S   -0.130132   0.038296  -0.006717   0.067447  -0.005559
    2  C  1  S    0.379007  -0.119067   0.025570  -0.216388   0.016782
    3  C  1  X   -0.051769  -0.047940   0.054888  -0.067270   0.059222
    4  C  1  Y   -0.016161   0.075695  -0.050905   0.143998   0.107361
    5  C  1  Z   -0.024577   0.054127  -0.004751   0.109133  -0.090572
    6  C  2  S   -0.001250  -0.060877   0.046748  -0.113921   0.006814
    7  C  2  S    0.003530   0.181716  -0.141533   0.352214  -0.024258
    8  C  2  X   -0.009339  -0.024178   0.030669  -0.088216   0.105820
    9  C  2  Y   -0.188405   0.019065   0.024613   0.000101  -0.005225
   10  C  2  Z   -0.007130   0.034993  -0.035152   0.114459  -0.097249
   11  C  3  S    0.129194   0.014831  -0.038389   0.066097  -0.002731
   12  C  3  S   -0.376312  -0.050289   0.118689  -0.212443   0.007781
   13  C  3  X    0.046149  -0.071811   0.039928  -0.081908   0.050768
   14  C  3  Y   -0.023454  -0.069923   0.051628  -0.141595  -0.100972
   15  C  3  Z    0.021514   0.016281  -0.065439   0.089588  -0.084332
   16  C  4  S   -0.062797   0.079643   0.045083  -0.015115   0.028327
   17  C  4  S    0.182727  -0.247587  -0.133449   0.048691  -0.097464
   18  C  4  X    0.073960  -0.039412   0.071990   0.106266   0.020959
   19  C  4  Y   -0.000416  -0.133866   0.028365   0.028116  -0.212628
   20  C  4  Z    0.005728   0.048554  -0.174194  -0.070111  -0.077163
   21  C  5  S    0.006466  -0.098100   0.054275   0.048531  -0.027107
   22  C  5  S   -0.018632   0.291436  -0.164895  -0.148969   0.082676
   23  C  5  X    0.006782  -0.042698   0.031821   0.072847   0.048843
   24  C  5  Y    0.094229  -0.077933  -0.150683  -0.020450   0.025295
   25  C  5  Z    0.003204   0.041048  -0.068303  -0.073642  -0.146637
   26  C  6  S    0.072489   0.009500  -0.083705  -0.031687   0.033426
   27  C  6  S   -0.211204  -0.034351   0.259017   0.099286  -0.112012
   28  C  6  X   -0.065129  -0.055056  -0.020848   0.084431   0.061008
   29  C  6  Y    0.016244   0.112737  -0.050191  -0.026957   0.264170
   30  C  6  Z   -0.017944   0.154056   0.040180  -0.034625  -0.109046
   31  C  7  S    0.055335   0.076691   0.085748  -0.021682  -0.025875
   32  C  7  S   -0.161034  -0.233634  -0.254365   0.069391   0.079225
   33  C  7  X    0.028429   0.064331  -0.111420  -0.053621  -0.055035
   34  C  7  Y    0.051151   0.122477   0.027793  -0.036446   0.145674
   35  C  7  Z   -0.039639  -0.024468   0.116333   0.090222   0.044064
   36  C  8  S   -0.038563  -0.086307  -0.005599   0.042307   0.032393
   37  C  8  S    0.111446   0.256106   0.028471  -0.127767  -0.113665
   38  C  8  X    0.000923   0.056482  -0.020427  -0.059731  -0.162606
   39  C  8  Y    0.076614   0.088650   0.234044   0.033798  -0.065852
   40  C  8  Z    0.007261  -0.033531   0.043132   0.092048   0.133569
   41  C  9  S   -0.065259   0.002657  -0.105851  -0.054145   0.013873
   42  C  9  S    0.199464  -0.008876   0.338966   0.176495  -0.044220
   43  C  9  X   -0.031451   0.134447  -0.018642  -0.052845  -0.040126
   44  C  9  Y   -0.082399  -0.099088  -0.127346  -0.010685  -0.040646
   45  C  9  Z    0.037430  -0.130004  -0.034495   0.090354   0.013407
   46  O 10  S    0.037837  -0.003275   0.058198   0.024422  -0.028801
   47  O 10  S   -0.157351   0.014500  -0.255814  -0.109882   0.137699
   48  O 10  X   -0.011666   0.069010  -0.031562  -0.044670   0.021785
   49  O 10  Y   -0.034839  -0.045565  -0.114562  -0.033858   0.078004
   50  O 10  Z    0.015104  -0.066801  -0.004005   0.062469  -0.022054
   51  H 11  S    0.141850  -0.057279   0.018814  -0.120707  -0.100713
   52  H 12  S    0.120696  -0.096645   0.026155  -0.177678   0.081182
   53  H 13  S    0.001056   0.092540  -0.082345   0.232617  -0.113180
   54  H 14  S   -0.117783  -0.053209   0.103422  -0.168122   0.070819
   55  H 15  S   -0.140828  -0.033678   0.046986  -0.121412  -0.095298
   56  H 16  S    0.055507  -0.135691  -0.101653  -0.001647  -0.195210
   57  H 17  S   -0.009155   0.145641  -0.103333  -0.121319  -0.072764
   58  H 18  S   -0.078004  -0.030861   0.137710   0.037899  -0.258234
   59  H 19  S   -0.065380  -0.135385  -0.160708   0.015155  -0.077882
   60  H 20  S    0.036220   0.135711  -0.013972  -0.121233  -0.192898

                     21         22         23         24         25
                   -0.6044    -0.5931    -0.5874    -0.5544    -0.5396
                     A          A          A          A          A   
    1  C  1  S   -0.014347  -0.009295   0.000331   0.000458   0.005143
    2  C  1  S    0.051368   0.027001   0.003429  -0.001105  -0.025363
    3  C  1  X   -0.096792  -0.118175   0.100778   0.132147  -0.173274
    4  C  1  Y   -0.228009  -0.125987  -0.100683   0.060839   0.072818
    5  C  1  Z    0.098067   0.003476  -0.109538  -0.204323   0.162692
    6  C  2  S    0.025570   0.007268   0.006321  -0.015829  -0.008130
    7  C  2  S   -0.079330  -0.020345  -0.019592   0.052390   0.026669
    8  C  2  X   -0.180216  -0.132446  -0.044152   0.029822   0.008975
    9  C  2  Y   -0.004291  -0.025690   0.139111   0.116293  -0.184299
   10  C  2  Z    0.142577   0.023389   0.039339  -0.078519  -0.033613
   11  C  3  S   -0.012196  -0.010650  -0.006180   0.004926   0.001788
   12  C  3  S    0.044395   0.034167   0.017666  -0.026085  -0.001959
   13  C  3  X   -0.076855  -0.028224  -0.150016  -0.149801   0.193484
   14  C  3  Y    0.248940   0.137905   0.023738  -0.057562  -0.009037
   15  C  3  Z    0.115256  -0.066790   0.138208   0.053635  -0.201604
   16  C  4  S   -0.003281   0.055951  -0.007921   0.020212  -0.010097
   17  C  4  S    0.008516  -0.189979   0.022688  -0.070439   0.034365
   18  C  4  X   -0.014992   0.102407  -0.080763   0.035409  -0.077456
   19  C  4  Y    0.001834  -0.060284  -0.144940   0.252271   0.049355
   20  C  4  Z    0.007041  -0.095034   0.170777   0.103175   0.117244
   21  C  5  S    0.011577  -0.056423  -0.003916   0.010003   0.017208
   22  C  5  S   -0.041093   0.192158   0.011994  -0.028348  -0.056226
   23  C  5  X    0.048953  -0.037896   0.018927  -0.039049  -0.029686
   24  C  5  Y   -0.022905  -0.054461   0.223276  -0.079955   0.119864
   25  C  5  Z   -0.109986   0.212177  -0.018674   0.267224   0.158167
   26  C  6  S   -0.009891   0.054734   0.011219  -0.001547   0.007197
   27  C  6  S    0.032773  -0.191852  -0.034567   0.007332  -0.021435
   28  C  6  X    0.016907   0.035280   0.089012   0.035070   0.068504
   29  C  6  Y    0.094954   0.035919  -0.044702  -0.089540  -0.188894
   30  C  6  Z   -0.006525   0.042262  -0.211100   0.005635  -0.057951
   31  C  7  S    0.003681  -0.045459  -0.009940  -0.006528  -0.018368
   32  C  7  S   -0.024326   0.151369   0.052174   0.011442   0.061761
   33  C  7  X   -0.001724   0.069374  -0.160732  -0.022951  -0.045071
   34  C  7  Y    0.264913  -0.120459  -0.173034   0.273557   0.050784
   35  C  7  Z    0.066060  -0.063255   0.109927   0.056200   0.091649
   36  C  8  S   -0.020895   0.045761   0.022468  -0.020221  -0.004383
   37  C  8  S    0.055358  -0.151606  -0.062448   0.058493   0.013161
   38  C  8  X   -0.090103  -0.120965  -0.006446  -0.154085  -0.143355
   39  C  8  Y   -0.111698   0.005136   0.248737  -0.091530   0.082312
   40  C  8  Z    0.102180   0.134854   0.041286   0.159551   0.153990
   41  C  9  S    0.042803  -0.080186  -0.012341  -0.009093   0.022759
   42  C  9  S   -0.146927   0.279859   0.039791   0.029270  -0.077330
   43  C  9  X   -0.023861  -0.010676   0.220561   0.050658   0.046962
   44  C  9  Y   -0.048755   0.042767  -0.152863   0.017198  -0.203218
   45  C  9  Z    0.043311   0.014871  -0.164528   0.045546  -0.145509
   46  O 10  S   -0.041036   0.049818   0.005352   0.009102  -0.034292
   47  O 10  S    0.201997  -0.245459  -0.026144  -0.046544   0.178353
   48  O 10  X    0.057543  -0.120869   0.189921  -0.026258   0.181777
   49  O 10  Y    0.166507  -0.190042  -0.165178  -0.018462   0.089827
   50  O 10  Z   -0.014693   0.084162  -0.157547   0.094171  -0.224284
   51  H 11  S    0.228608   0.143342   0.000774  -0.148335   0.056414
   52  H 12  S   -0.071980  -0.018393   0.130195   0.198085  -0.208062
   53  H 13  S    0.140122   0.081042   0.039070  -0.035058  -0.012446
   54  H 14  S   -0.077710   0.066921  -0.151177  -0.117940   0.235389
   55  H 15  S    0.238588   0.098253   0.109499   0.022782  -0.131329
   56  H 16  S    0.019346  -0.176618  -0.001106   0.190816   0.112338
   57  H 17  S   -0.107545   0.259227  -0.024435   0.208425   0.101309
   58  H 18  S   -0.051621  -0.096137  -0.063770   0.063451   0.112451
   59  H 19  S   -0.212427   0.194944   0.074829  -0.223260  -0.051574
   60  H 20  S   -0.075966  -0.217880  -0.049149  -0.160322  -0.169708

                     26         27         28         29         30
                   -0.5170    -0.5079    -0.4880    -0.4776    -0.4470
                     A          A          A          A          A   
    1  C  1  S    0.009321  -0.009038   0.008097  -0.029637  -0.009781
    2  C  1  S   -0.036834   0.019968  -0.031961   0.103541   0.036555
    3  C  1  X   -0.022817  -0.170371   0.104929  -0.036621   0.040045
    4  C  1  Y   -0.160589   0.121853   0.138724   0.275396   0.212598
    5  C  1  Z   -0.147714  -0.096670  -0.205016   0.060826   0.046171
    6  C  2  S   -0.013597  -0.015963  -0.008846   0.005977   0.003194
    7  C  2  S    0.048229   0.057049   0.037339  -0.026265  -0.011731
    8  C  2  X   -0.057747  -0.078765  -0.248519   0.193741   0.009729
    9  C  2  Y    0.191532  -0.157668  -0.153518  -0.204326  -0.207713
   10  C  2  Z   -0.087601  -0.173449   0.103262  -0.084302   0.017815
   11  C  3  S   -0.009418   0.000527   0.032607  -0.001520   0.005691
   12  C  3  S    0.023560  -0.009687  -0.113518   0.009981  -0.018339
   13  C  3  X   -0.117320  -0.058111   0.092981  -0.089549   0.011096
   14  C  3  Y   -0.137886   0.158506   0.228440   0.193740   0.215354
   15  C  3  Z   -0.092681  -0.206155  -0.069477   0.222924   0.022678
   16  C  4  S   -0.009656   0.008684   0.001915   0.001190  -0.000428
   17  C  4  S    0.027115  -0.042888  -0.006926   0.002795  -0.006552
   18  C  4  X    0.215059   0.142043   0.049567   0.022545   0.011033
   19  C  4  Y   -0.176223   0.065353   0.082252   0.047175  -0.316083
   20  C  4  Z   -0.046710   0.190817  -0.100831  -0.088553   0.015499
   21  C  5  S   -0.010413  -0.020067  -0.006981   0.006903   0.001644
   22  C  5  S    0.038524   0.070437   0.027096  -0.024169  -0.005119
   23  C  5  X    0.130480   0.231389  -0.009286  -0.029881  -0.031612
   24  C  5  Y    0.104049  -0.044660  -0.088884  -0.116181   0.353872
   25  C  5  Z    0.052495  -0.057118   0.083761  -0.014397   0.059784
   26  C  6  S    0.019110  -0.011949  -0.005473   0.010886   0.004893
   27  C  6  S   -0.074955   0.033715   0.016977  -0.042293  -0.006415
   28  C  6  X    0.048005   0.247125   0.063725  -0.101201  -0.032290
   29  C  6  Y   -0.222437   0.118366   0.063368   0.019178  -0.297351
   30  C  6  Z    0.127894   0.042084  -0.058044   0.143223  -0.159398
   31  C  7  S    0.021615  -0.001876   0.011261   0.004073   0.002234
   32  C  7  S   -0.078974   0.013336  -0.026635  -0.016027  -0.015128
   33  C  7  X    0.109638   0.029919  -0.152486   0.144003  -0.061517
   34  C  7  Y   -0.063599  -0.039526  -0.102955  -0.128210   0.134395
   35  C  7  Z   -0.005550   0.201719   0.006439  -0.087949   0.028953
   36  C  8  S   -0.009485   0.005612  -0.001264   0.004309  -0.011397
   37  C  8  S    0.035753  -0.014556   0.016034  -0.015934   0.039805
   38  C  8  X    0.063768   0.211405   0.001535  -0.024220   0.010454
   39  C  8  Y    0.013788   0.011390   0.138854   0.078347  -0.118876
   40  C  8  Z    0.053804   0.019546  -0.144841   0.135555  -0.041811
   41  C  9  S    0.007872   0.011114   0.009334  -0.015194  -0.000791
   42  C  9  S   -0.020158  -0.045287  -0.028126   0.061104   0.000910
   43  C  9  X   -0.072461   0.223741  -0.227619   0.034164   0.004552
   44  C  9  Y   -0.200944   0.072911  -0.119126  -0.221632   0.145102
   45  C  9  Z    0.241142   0.134731  -0.053340   0.094982   0.081146
   46  O 10  S   -0.051714   0.017241  -0.031205  -0.026254   0.013450
   47  O 10  S    0.276065  -0.093035   0.171628   0.146720  -0.078022
   48  O 10  X    0.152268   0.100901  -0.045099   0.220068  -0.157721
   49  O 10  Y    0.352366  -0.130796   0.285825   0.146897  -0.051570
   50  O 10  Z    0.061531   0.157733  -0.146859  -0.042418   0.211684
   51  H 11  S    0.085352  -0.033268  -0.240235  -0.138381  -0.170246
   52  H 12  S    0.096879  -0.005527   0.214779  -0.053721  -0.021210
   53  H 13  S    0.009437  -0.031977   0.264779  -0.215089  -0.003384
   54  H 14  S    0.014250   0.118831   0.095281  -0.227912  -0.010469
   55  H 15  S   -0.082232   0.092478   0.073577   0.275930   0.179029
   56  H 16  S   -0.163388   0.119207   0.008738  -0.003919  -0.260570
   57  H 17  S    0.005218  -0.104261   0.100156  -0.008317   0.046496
   58  H 18  S    0.201884  -0.092710  -0.084739   0.027381   0.203002
   59  H 19  S    0.044978  -0.033375   0.029205   0.181758  -0.168517
   60  H 20  S    0.026956   0.118652   0.113291  -0.116707   0.056105

                     31         32         33         34         35
                   -0.4434    -0.4185    -0.3647    -0.3155    -0.2824
                     A          A          A          A          A   
    1  C  1  S    0.008529   0.002736  -0.002590  -0.000070   0.027061
    2  C  1  S   -0.036445   0.004711  -0.005941   0.000918  -0.128625
    3  C  1  X    0.058204   0.248655  -0.054689  -0.011484  -0.294570
    4  C  1  Y    0.038441  -0.029393  -0.020899   0.007666  -0.015447
    5  C  1  Z   -0.203271   0.098544  -0.183586   0.033345  -0.199595
    6  C  2  S   -0.003256   0.020123   0.012903  -0.004042  -0.006614
    7  C  2  S    0.017014  -0.071304  -0.049087   0.013478   0.027392
    8  C  2  X   -0.171945  -0.060531   0.027874   0.021605  -0.046688
    9  C  2  Y   -0.043350   0.004830  -0.053139   0.002129  -0.063736
   10  C  2  Z    0.031009   0.231906   0.137818  -0.010162  -0.092959
   11  C  3  S    0.016421  -0.003709  -0.013772  -0.002325  -0.012557
   12  C  3  S   -0.058396   0.014474   0.076277   0.010720   0.070021
   13  C  3  X    0.066815   0.175614   0.285740  -0.017561   0.159276
   14  C  3  Y    0.081504   0.014124  -0.049213  -0.001915  -0.043822
   15  C  3  Z   -0.084094  -0.104409   0.240441   0.027529   0.161869
   16  C  4  S   -0.025355   0.008800  -0.017283  -0.030994  -0.008916
   17  C  4  S    0.092518  -0.029841   0.092267   0.141375   0.051201
   18  C  4  X   -0.058834  -0.012245  -0.257193   0.239968  -0.254489
   19  C  4  Y   -0.089969   0.048077  -0.019008   0.025604  -0.019120
   20  C  4  Z    0.097292  -0.019986  -0.248555  -0.232954  -0.101715
   21  C  5  S   -0.005242   0.016580   0.012161   0.006351  -0.003718
   22  C  5  S    0.011112  -0.061865  -0.043262  -0.019897   0.011212
   23  C  5  X    0.076446  -0.161262  -0.075136   0.075924  -0.020748
   24  C  5  Y    0.025720  -0.035024  -0.033320  -0.040387  -0.069207
   25  C  5  Z   -0.218637  -0.001791   0.052401   0.129571  -0.033442
   26  C  6  S    0.003086  -0.007897   0.018742  -0.001577   0.005785
   27  C  6  S   -0.022568   0.042343  -0.082598   0.009821  -0.047579
   28  C  6  X   -0.126039  -0.233379   0.240422   0.049024   0.215621
   29  C  6  Y   -0.080350   0.063881  -0.059951  -0.031729  -0.029853
   30  C  6  Z    0.306271  -0.109562   0.059361  -0.078672   0.130201
   31  C  7  S    0.011241   0.004110  -0.010049  -0.011981  -0.005121
   32  C  7  S   -0.058250  -0.013309   0.039797   0.043415   0.020648
   33  C  7  X    0.232393   0.006990   0.231847  -0.127364  -0.302637
   34  C  7  Y    0.076945  -0.014320  -0.004857   0.102703   0.027581
   35  C  7  Z   -0.226714  -0.056478   0.343127  -0.070249  -0.216153
   36  C  8  S    0.004211  -0.000251   0.005903   0.036783  -0.007049
   37  C  8  S   -0.033602   0.000526  -0.024580  -0.164184   0.034031
   38  C  8  X   -0.132781   0.058894   0.285410   0.003692  -0.311499
   39  C  8  Y   -0.142833   0.002798  -0.072748  -0.239142   0.091790
   40  C  8  Z    0.087461   0.091182   0.222792  -0.231028  -0.281563
   41  C  9  S    0.003416  -0.002244   0.008101   0.000925   0.008859
   42  C  9  S   -0.014514   0.011812  -0.029901  -0.001875  -0.037475
   43  C  9  X    0.083769   0.294083   0.004419  -0.082144   0.149158
   44  C  9  Y    0.039927  -0.080748   0.042386   0.083453  -0.010700
   45  C  9  Z   -0.149037   0.305383   0.003402   0.157793   0.064511
   46  O 10  S    0.011981  -0.002952   0.001019  -0.000346  -0.000145
   47  O 10  S   -0.070126   0.017814  -0.008534   0.001784  -0.001872
   48  O 10  X    0.074683   0.361905   0.046773   0.520674   0.175020
   49  O 10  Y   -0.258251  -0.018994  -0.072411  -0.366514   0.004340
   50  O 10  Z   -0.192979   0.328212  -0.055284  -0.444368   0.382049
   51  H 11  S   -0.138085  -0.084674  -0.003640   0.013361   0.075771
   52  H 12  S    0.194791   0.047795   0.132759  -0.032527   0.025244
   53  H 13  S    0.164223   0.189554   0.063695  -0.023039  -0.028269
   54  H 14  S    0.094670   0.175714  -0.049621  -0.048358  -0.062108
   55  H 15  S   -0.016365  -0.094123  -0.079817   0.020296  -0.044747
   56  H 16  S    0.032483   0.015267  -0.118624  -0.109613  -0.033544
   57  H 17  S   -0.242390   0.044821   0.078795   0.112473  -0.018971
   58  H 18  S    0.221780  -0.075094   0.019703  -0.008983   0.083350
   59  H 19  S    0.069765   0.032960  -0.066819  -0.115215  -0.004246
   60  H 20  S   -0.189552  -0.025375   0.040857   0.120353  -0.004808

                     36         37         38         39         40
                   -0.2114     0.1941     0.2213     0.3783     0.3917
                     A          A          A          A          A   
    1  C  1  S   -0.028071  -0.011021  -0.038347   0.030052  -0.039683
    2  C  1  S    0.104049   0.079962   0.188931  -0.130694   0.202054
    3  C  1  X    0.166135   0.197044   0.259111  -0.250802   0.355394
    4  C  1  Y    0.019446  -0.045760   0.002681  -0.046115  -0.036422
    5  C  1  Z    0.130621   0.124310   0.175246  -0.306975   0.239720
    6  C  2  S    0.024990  -0.022921  -0.003037  -0.002491  -0.005650
    7  C  2  S   -0.120324   0.127059   0.017365   0.018532   0.043502
    8  C  2  X    0.323078  -0.363086  -0.048580  -0.073783  -0.161562
    9  C  2  Y   -0.037000   0.026538   0.056139  -0.011250   0.015878
   10  C  2  Z    0.460943  -0.445379  -0.061335  -0.086903  -0.205687
   11  C  3  S   -0.030845  -0.017661   0.032975  -0.051023  -0.009021
   12  C  3  S    0.117068   0.112568  -0.154935   0.244538   0.059497
   13  C  3  X    0.186755   0.239067  -0.178802   0.417598   0.098645
   14  C  3  Y   -0.043781   0.014470   0.042433  -0.070413   0.048439
   15  C  3  Z    0.158492   0.161822  -0.132525   0.405436  -0.023754
   16  C  4  S    0.033838  -0.014872  -0.015675   0.053219  -0.023153
   17  C  4  S   -0.134201   0.094771   0.061123  -0.256089   0.133924
   18  C  4  X    0.165967  -0.207975  -0.130885   0.471358  -0.116466
   19  C  4  Y    0.011559   0.048497  -0.000713   0.013648  -0.018399
   20  C  4  Z    0.151974  -0.170969  -0.091641   0.296327  -0.022827
   21  C  5  S   -0.024937  -0.022703  -0.002372   0.007295   0.020409
   22  C  5  S    0.119013   0.126017   0.011737  -0.040687  -0.112342
   23  C  5  X    0.540126   0.582296   0.058199  -0.044537  -0.116135
   24  C  5  Y   -0.026986  -0.034691   0.060372   0.067788  -0.040500
   25  C  5  Z    0.163750   0.231432   0.029778   0.009180  -0.007744
   26  C  6  S    0.030969  -0.016830   0.010645  -0.056184   0.020802
   27  C  6  S   -0.123052   0.102656  -0.029616   0.287190  -0.087671
   28  C  6  X    0.206278  -0.231371   0.099457  -0.430716   0.265396
   29  C  6  Y   -0.033194  -0.020466  -0.017624   0.060834  -0.035384
   30  C  6  Z    0.137142  -0.179997   0.048948  -0.208876   0.174256
   31  C  7  S    0.009330   0.017695   0.004959   0.000454  -0.000819
   32  C  7  S   -0.038579  -0.084937  -0.022756  -0.003596   0.006991
   33  C  7  X   -0.011015  -0.010082   0.415926   0.332638   0.229160
   34  C  7  Y    0.002144   0.019558  -0.053401  -0.048383  -0.040887
   35  C  7  Z   -0.082334  -0.157638   0.351558   0.307317   0.211800
   36  C  8  S   -0.004575  -0.008417  -0.001050  -0.002262  -0.002053
   37  C  8  S    0.020416   0.037499   0.004845   0.013272   0.011603
   38  C  8  X   -0.115324   0.131821  -0.271436  -0.247741  -0.377633
   39  C  8  Y    0.041025  -0.002962   0.032433   0.028537   0.052057
   40  C  8  Z   -0.083471   0.151505  -0.272933  -0.253139  -0.381103
   41  C  9  S    0.009394   0.019908  -0.001428  -0.001270   0.000226
   42  C  9  S   -0.040017  -0.095805   0.005352   0.009841  -0.000481
   43  C  9  X    0.049914   0.073467  -0.333096  -0.005248   0.451783
   44  C  9  Y   -0.004057  -0.006362   0.044545   0.009086  -0.070175
   45  C  9  Z   -0.050176  -0.106484  -0.335326  -0.016812   0.457413
   46  O 10  S   -0.000156  -0.002396  -0.000376   0.001607  -0.000479
   47  O 10  S   -0.001115   0.010688   0.002612  -0.010829   0.002595
   48  O 10  X   -0.071768  -0.033787   0.382798   0.016673  -0.324566
   49  O 10  Y    0.030478   0.005559  -0.062105   0.012886   0.048597
   50  O 10  Z    0.047202   0.069704   0.388831   0.002823  -0.323726
   51  H 11  S   -0.002715  -0.057132  -0.044869  -0.017258  -0.035030
   52  H 12  S    0.077212  -0.150078  -0.029008  -0.083530  -0.045256
   53  H 13  S    0.052562  -0.020217  -0.000701  -0.000276   0.013977
   54  H 14  S    0.070314  -0.142189  -0.009648   0.020718  -0.080093
   55  H 15  S   -0.001634  -0.074842   0.024991  -0.009836  -0.038233
   56  H 16  S    0.008066  -0.066690   0.021702  -0.007579  -0.093443
   57  H 17  S   -0.063386  -0.024059  -0.002788   0.003052   0.033373
   58  H 18  S    0.000871  -0.072426  -0.058878  -0.073145  -0.076667
   59  H 19  S    0.024634   0.034379   0.000897   0.003158  -0.017889
   60  H 20  S   -0.025953  -0.047881  -0.013340  -0.017689  -0.011158

                     41         42         43         44         45
                    0.5297     0.5709     0.5867     0.6195     0.6258
                     A          A          A          A          A   
    1  C  1  S   -0.013685  -0.023579   0.000827  -0.006217   0.036301
    2  C  1  S    0.054085   0.152648  -0.004514   0.041929  -0.227781
    3  C  1  X    0.412650  -0.198738   0.118844   0.010370   0.222424
    4  C  1  Y   -0.049867  -0.126109   0.033850   0.053611   0.183470
    5  C  1  Z    0.282644   0.127566  -0.178598  -0.074933  -0.273259
    6  C  2  S   -0.034026  -0.020578   0.011699   0.002610   0.045137
    7  C  2  S    0.212428   0.127719  -0.073523  -0.018770  -0.285730
    8  C  2  X   -0.188490  -0.188105   0.137136  -0.024761   0.402753
    9  C  2  Y    0.027240   0.001592  -0.007462   0.036795  -0.012505
   10  C  2  Z   -0.314443   0.169514  -0.106294  -0.006810  -0.285767
   11  C  3  S   -0.014428  -0.012464   0.023730   0.027328   0.030298
   12  C  3  S    0.057830   0.081363  -0.152129  -0.170216  -0.189577
   13  C  3  X    0.416429  -0.195944   0.112280  -0.048769   0.219057
   14  C  3  Y    0.006914   0.106980  -0.107022  -0.030890  -0.179470
   15  C  3  Z    0.304288   0.189205  -0.040325   0.145045  -0.299725
   16  C  4  S    0.046066   0.000963   0.048446   0.106435  -0.009743
   17  C  4  S   -0.242552   0.016799  -0.294652  -0.623156   0.071241
   18  C  4  X    0.364456  -0.255262  -0.036087  -0.503661  -0.169602
   19  C  4  Y   -0.071572   0.118211  -0.169246  -0.100579   0.103814
   20  C  4  Z    0.375707   0.331201  -0.042590   0.264731   0.158691
   21  C  5  S    0.010923  -0.045109   0.018491   0.004069  -0.051718
   22  C  5  S   -0.081771   0.282151  -0.118658  -0.028323   0.325444
   23  C  5  X   -0.364745  -0.117481   0.018632   0.114520  -0.081711
   24  C  5  Y    0.035222  -0.042424  -0.017831   0.122759  -0.043420
   25  C  5  Z   -0.095220   0.306117  -0.184348   0.107646   0.312847
   26  C  6  S    0.042591  -0.052116  -0.066791  -0.013308   0.007585
   27  C  6  S   -0.223920   0.328869   0.386612   0.074661  -0.030702
   28  C  6  X    0.383791  -0.052230   0.368758   0.021347  -0.231103
   29  C  6  Y    0.038924  -0.290468  -0.055362   0.214450  -0.154301
   30  C  6  Z    0.362631   0.182359  -0.324885  -0.099451   0.207250
   31  C  7  S   -0.018246  -0.050761   0.024429   0.054541  -0.052278
   32  C  7  S    0.104972   0.307962  -0.132447  -0.363006   0.313282
   33  C  7  X   -0.260445   0.011723   0.339867   0.012245  -0.126279
   34  C  7  Y    0.035949  -0.259950  -0.223117   0.262148  -0.111203
   35  C  7  Z   -0.128479  -0.101609  -0.454446   0.070584   0.119320
   36  C  8  S    0.015542   0.013110   0.024467   0.107486   0.001511
   37  C  8  S   -0.090984  -0.055275  -0.126807  -0.662300  -0.003345
   38  C  8  X    0.167900   0.133622   0.304610  -0.237827  -0.053654
   39  C  8  Y   -0.025325  -0.181570  -0.390692  -0.292412   0.045491
   40  C  8  Z    0.198160  -0.124269  -0.326530   0.145949   0.049516
   41  C  9  S   -0.020631  -0.091768  -0.093772  -0.123884  -0.019446
   42  C  9  S    0.118751   0.540241   0.553764   0.727491   0.112210
   43  C  9  X   -0.273060  -0.104729   0.123901  -0.250323  -0.116277
   44  C  9  Y    0.039010  -0.068387  -0.317242  -0.236638   0.063426
   45  C  9  Z   -0.144621   0.085743  -0.168912   0.313722   0.117048
   46  O 10  S    0.003508   0.018709   0.014194   0.006531   0.003866
   47  O 10  S   -0.021113  -0.116924  -0.084855  -0.025370  -0.025106
   48  O 10  X    0.141188   0.089675  -0.012352   0.041990   0.045580
   49  O 10  Y   -0.003119   0.137156   0.157499   0.005517   0.008502
   50  O 10  Z    0.085862  -0.057857   0.033633  -0.086050  -0.044134
   51  H 11  S    0.075160  -0.318508   0.158405   0.045146   0.459523
   52  H 12  S    0.000287   0.133342  -0.222883  -0.089657  -0.241509
   53  H 13  S   -0.044192  -0.348205   0.224869  -0.009030   0.658615
   54  H 14  S   -0.008965   0.229080  -0.026052   0.225694  -0.287364
   55  H 15  S    0.070606  -0.286677   0.231541   0.030417   0.443438
   56  H 16  S    0.005819  -0.319516   0.335877   0.217500  -0.236579
   57  H 17  S   -0.040914  -0.514850   0.258483  -0.047071  -0.511014
   58  H 18  S    0.030633  -0.527772  -0.085603   0.194815  -0.235320
   59  H 19  S   -0.012115  -0.461595  -0.418006   0.427571  -0.171406
   60  H 20  S    0.089798  -0.137251  -0.388848   0.657638   0.088570

                     46         47         48         49         50
                    0.6607     0.6978     0.7140     0.7291     0.7432
                     A          A          A          A          A   
    1  C  1  S    0.026945  -0.102918  -0.055752   0.120614  -0.070453
    2  C  1  S   -0.166506   0.655522   0.347153  -0.770522   0.444879
    3  C  1  X   -0.106237  -0.142692  -0.009701  -0.191466   0.054671
    4  C  1  Y   -0.166055  -0.424184   0.242494  -0.153436  -0.311410
    5  C  1  Z    0.226556  -0.137560  -0.124127   0.485633  -0.171310
    6  C  2  S   -0.008945   0.053935   0.077836  -0.012938  -0.012336
    7  C  2  S    0.052264  -0.328257  -0.483379   0.080892   0.104565
    8  C  2  X   -0.068485   0.051956   0.023265  -0.007747   0.026483
    9  C  2  Y   -0.141182  -0.140784   0.097160  -0.339194  -0.033896
   10  C  2  Z    0.003873  -0.005923  -0.014487  -0.009806   0.068698
   11  C  3  S    0.002532  -0.062551  -0.127671  -0.091716  -0.073014
   12  C  3  S   -0.018371   0.388030   0.815558   0.589571   0.460697
   13  C  3  X    0.069902   0.050513  -0.129209   0.214737   0.128380
   14  C  3  Y   -0.232352  -0.192337   0.401722  -0.154858   0.207858
   15  C  3  Z   -0.087432  -0.231953  -0.134206  -0.471503  -0.214932
   16  C  4  S    0.017248  -0.015887  -0.057343   0.025088   0.126600
   17  C  4  S   -0.116719   0.100110   0.372648  -0.139649  -0.789392
   18  C  4  X    0.082153   0.061681   0.101476  -0.068754  -0.034212
   19  C  4  Y   -0.514187  -0.223332   0.054305   0.182921   0.101857
   20  C  4  Z   -0.229217   0.081954   0.164133   0.140703  -0.189407
   21  C  5  S    0.005891   0.044717   0.067033  -0.000204  -0.145020
   22  C  5  S   -0.043448  -0.279453  -0.433140   0.004303   0.923193
   23  C  5  X    0.093195  -0.081162   0.031642  -0.007251  -0.103102
   24  C  5  Y   -0.307346  -0.080846   0.014808   0.190229   0.046756
   25  C  5  Z   -0.047513   0.043693   0.026429   0.058371  -0.130193
   26  C  6  S    0.070795  -0.090741   0.009035  -0.044806   0.116249
   27  C  6  S   -0.419082   0.573786  -0.049768   0.262612  -0.728800
   28  C  6  X   -0.353713   0.185962  -0.073785   0.071154   0.029382
   29  C  6  Y   -0.252728  -0.349756   0.262883   0.168258   0.041231
   30  C  6  Z    0.201172   0.127113   0.175931  -0.132169  -0.273040
   31  C  7  S   -0.111360   0.088455  -0.075183   0.042351  -0.027513
   32  C  7  S    0.683055  -0.576749   0.474984  -0.257659   0.168377
   33  C  7  X   -0.110887  -0.070091   0.023146   0.136843  -0.047409
   34  C  7  Y   -0.178984   0.112557   0.068629   0.110489  -0.169360
   35  C  7  Z    0.176604  -0.067735  -0.062470  -0.030222   0.040633
   36  C  8  S    0.091515  -0.030923   0.108517   0.006113  -0.032943
   37  C  8  S   -0.552500   0.181270  -0.696697  -0.043546   0.221019
   38  C  8  X   -0.113316  -0.128897   0.028866   0.049191   0.010903
   39  C  8  Y   -0.123362  -0.088863  -0.077524  -0.073207   0.070292
   40  C  8  Z    0.051934   0.197930  -0.016348  -0.088466  -0.038356
   41  C  9  S    0.002529   0.035216  -0.037001  -0.046869  -0.023024
   42  C  9  S   -0.027649  -0.224669   0.220164   0.283428   0.136781
   43  C  9  X    0.112427  -0.139793   0.161370  -0.066446  -0.156042
   44  C  9  Y   -0.310218  -0.047818  -0.245648  -0.015406   0.145490
   45  C  9  Z   -0.135397   0.023598  -0.316673  -0.004870   0.191371
   46  O 10  S   -0.017169  -0.021039   0.005274   0.010533   0.008715
   47  O 10  S    0.122555   0.143921  -0.033223  -0.070525  -0.059245
   48  O 10  X   -0.128016  -0.039238  -0.037380   0.050601   0.074794
   49  O 10  Y   -0.094381  -0.168590   0.098241   0.077894   0.022295
[...]
   29  C  6  Y   -0.255789   0.610396  -0.038965  -0.066255  -0.082468
   30  C  6  Z   -0.517302  -0.143292   0.062057  -0.205544   0.035804
   31  C  7  S    0.038527   0.072991   0.014179   0.006822   0.016215
   32  C  7  S   -0.219138  -0.429893  -0.096307  -0.030892  -0.128905
   33  C  7  X    0.268225   0.225594  -0.222641   0.063658  -0.027863
   34  C  7  Y   -0.155975   0.208178   0.249594  -0.045675   0.164651
   35  C  7  Z   -0.290626  -0.088900   0.360693  -0.085232   0.089766
   36  C  8  S   -0.023708   0.029768  -0.041865  -0.021969   0.117030
   37  C  8  S    0.148902  -0.194466   0.227217   0.136098  -0.721250
   38  C  8  X    0.103214  -0.019977  -0.221971   0.080868  -0.274777
   39  C  8  Y   -0.160382  -0.051577   0.373179   0.010814  -0.299352
   40  C  8  Z   -0.204771  -0.047619   0.355096  -0.073379   0.110108
   41  C  9  S    0.004497  -0.032597   0.152538   0.053597  -0.091781
   42  C  9  S   -0.026996   0.191777  -0.903959  -0.317006   0.533883
   43  C  9  X    0.114041   0.012490   0.083765   0.140324  -0.038186
   44  C  9  Y   -0.124039  -0.089004   0.254698  -0.026130  -0.346003
   45  C  9  Z   -0.254503   0.043271   0.009041  -0.224525   0.195877
   46  O 10  S   -0.001038   0.002820  -0.027346  -0.009229  -0.003872
   47  O 10  S    0.006427  -0.014199   0.168643   0.056891   0.042406
   48  O 10  X   -0.037045  -0.013503  -0.083113  -0.061055  -0.051879
   49  O 10  Y    0.031729   0.023860  -0.227568  -0.040233  -0.042876
   50  O 10  Z    0.081808  -0.015312   0.048237   0.086078  -0.014160
   51  H 11  S    0.171949   0.468730   0.027579  -0.263919  -0.260568
   52  H 12  S   -0.353516  -0.180692   0.034558   0.112040   0.095033
   53  H 13  S    0.187159   0.294813   0.154125  -0.545606  -0.214451
   54  H 14  S   -0.208821   0.063826  -0.149623   0.401255  -0.047863
   55  H 15  S    0.243478   0.001323   0.167705  -0.511723  -0.006963
   56  H 16  S    0.361636   0.069433   0.093451   0.287989   0.654957
   57  H 17  S    0.253788   0.383389   0.321493   0.442444   0.132157
   58  H 18  S    0.005317   0.545535   0.231347   0.127442  -0.035558
   59  H 19  S   -0.228640   0.353132   0.497731  -0.082431   0.220844
   60  H 20  S   -0.339799   0.075830   0.274631  -0.197649   0.674266

                     46         47         48         49         50
                    0.6626     0.6796     0.6804     0.7039     0.7279
                     A          A          A          A          A   
    1  C  1  S   -0.046435   0.073182  -0.055140  -0.067423   0.124294
    2  C  1  S    0.249174  -0.428072   0.331137   0.409290  -0.780578
    3  C  1  X    0.283734  -0.680614   0.200638  -0.063350   0.355965
    4  C  1  Y    0.455474   0.155224   0.260923   0.074382  -0.014383
    5  C  1  Z    0.240500  -0.427937  -0.366672  -0.090122   0.161046
    6  C  2  S    0.092488   0.044372  -0.000450   0.086120  -0.097356
    7  C  2  S   -0.578405  -0.279288   0.019978  -0.506284   0.629271
    8  C  2  X   -0.047617   0.165421  -0.137026   0.002703  -0.105801
    9  C  2  Y    0.130216   0.164043   0.193122  -0.027669  -0.269164
   10  C  2  Z   -0.277284   0.046476   0.005759   0.020702   0.147552
   11  C  3  S    0.002653  -0.008476   0.043540  -0.197544  -0.041382
   12  C  3  S   -0.032065   0.044954  -0.284885   1.267723   0.289382
   13  C  3  X    0.078931  -0.062087  -0.207217   0.075312   0.079418
   14  C  3  Y   -0.101131  -0.061624   0.145600   0.331171   0.229942
   15  C  3  Z    0.090083  -0.050612   0.167223  -0.284251  -0.161490
   16  C  4  S   -0.000004   0.011788   0.066518   0.011932   0.002656
   17  C  4  S    0.002521  -0.070883  -0.398232  -0.072295  -0.013279
   18  C  4  X    0.005768  -0.151551   0.042775   0.020508   0.018028
   19  C  4  Y   -0.202663  -0.110717   0.101583   0.000165   0.145032
   20  C  4  Z   -0.148669  -0.158606   0.078104   0.021706   0.020831
   21  C  5  S   -0.000699   0.004491  -0.155594  -0.026358  -0.033680
   22  C  5  S   -0.020859  -0.043148   0.975156   0.164156   0.224548
   23  C  5  X   -0.079583   0.202596  -0.184963  -0.068240   0.060658
   24  C  5  Y   -0.114483  -0.169344  -0.220043  -0.024002  -0.048512
   25  C  5  Z   -0.128845   0.032761   0.043112  -0.001043   0.063772
   26  C  6  S    0.113993  -0.040017   0.104724   0.009535   0.091194
   27  C  6  S   -0.661588   0.221952  -0.620101  -0.051863  -0.577078
   28  C  6  X    0.040783  -0.884544   0.026365   0.100483  -0.200020
   29  C  6  Y   -0.157522   0.025538  -0.235853  -0.106343   0.428840
   30  C  6  Z    0.400393  -0.284468  -0.291564  -0.015438  -0.219010
   31  C  7  S   -0.137881  -0.052936   0.015582   0.015542  -0.065372
   32  C  7  S    0.861872   0.320242  -0.114198  -0.105292   0.428665
   33  C  7  X   -0.207561   0.060771  -0.063639  -0.028271   0.066063
   34  C  7  Y   -0.231107  -0.126636  -0.024065   0.010649  -0.057808
   35  C  7  Z   -0.025467   0.199168   0.108556  -0.012562   0.052883
   36  C  8  S    0.063710   0.041745  -0.018463  -0.011460   0.031313
   37  C  8  S   -0.375092  -0.253423   0.116634   0.067648  -0.197001
   38  C  8  X    0.109964  -0.154019  -0.171241  -0.044132   0.095434
   39  C  8  Y   -0.050292  -0.010028   0.043140  -0.001026   0.073795
   40  C  8  Z   -0.055168  -0.025634   0.168828   0.050104  -0.123710
   41  C  9  S   -0.014961  -0.004658  -0.002718   0.003951  -0.028987
   42  C  9  S    0.085239   0.022987   0.013886  -0.028684   0.180911
   43  C  9  X    0.061538   0.114098  -0.110294  -0.051695   0.048788
   44  C  9  Y   -0.168918  -0.110868   0.114110   0.011882   0.032909
   45  C  9  Z   -0.193304  -0.001424   0.247188   0.055193  -0.093640
   46  O 10  S   -0.001170  -0.004006   0.000282  -0.003388   0.015627
   47  O 10  S    0.010785   0.029958  -0.000903   0.023237  -0.107643
   48  O 10  X   -0.028337  -0.065791   0.032757   0.006467   0.028228
   49  O 10  Y    0.020906  -0.017683  -0.039799  -0.034936   0.129295
   50  O 10  Z    0.073927   0.013641  -0.076225  -0.005331  -0.023936
   51  H 11  S    0.206996   0.128543   0.294520  -0.135628   0.415291
   52  H 12  S    0.159409  -0.063872  -0.478051  -0.218912   0.452138
   53  H 13  S    0.445261   0.201916  -0.109728   0.279882  -0.449905
   54  H 14  S    0.009440  -0.023105   0.405808  -0.854277  -0.298665
   55  H 15  S    0.112043  -0.005932  -0.107672  -0.816535  -0.238734
   56  H 16  S    0.251026   0.222520   0.100180   0.025809  -0.101727
   57  H 17  S    0.045262   0.048524  -0.639285  -0.113665  -0.143587
   58  H 18  S    0.004133   0.127839   0.233022  -0.048132   0.671205
   59  H 19  S   -0.617961  -0.180973   0.099827   0.064479  -0.258423
   60  H 20  S    0.107536   0.219861   0.171230   0.028406  -0.042846

                     51         52         53         54         55
                    0.7444     0.7805     0.7849     0.8861     0.8953
                     A          A          A          A          A   
    1  C  1  S    0.062320   0.129212  -0.020888  -0.012678  -0.022764
    2  C  1  S   -0.407957  -0.832017   0.122781   0.085766   0.147392
    3  C  1  X   -0.199151   0.225992  -0.298524   0.038839  -0.038456
    4  C  1  Y    0.287818   0.520107   0.040789  -0.053505  -0.040729
    5  C  1  Z    0.522821  -0.033311   0.467190  -0.112620   0.067306
    6  C  2  S    0.058679  -0.025472   0.071513  -0.016497  -0.004246
    7  C  2  S   -0.391880   0.169318  -0.480544   0.117776   0.028235
    8  C  2  X   -0.008070  -0.041927  -0.006822  -0.028159  -0.151221
    9  C  2  Y   -0.014587  -0.033197   0.011796   0.052304   0.058258
   10  C  2  Z   -0.090176   0.001445  -0.053842   0.021796   0.133356
   11  C  3  S   -0.013254  -0.009111  -0.009392   0.007342   0.000614
   12  C  3  S    0.085232   0.064110   0.061331  -0.052721  -0.000348
   13  C  3  X    0.097678  -0.080899   0.076631   0.054434   0.177818
   14  C  3  Y   -0.198662   0.206853  -0.274693   0.015992  -0.172770
   15  C  3  Z    0.058698   0.009401   0.093869  -0.080696  -0.100162
   16  C  4  S    0.115599  -0.053697  -0.064044  -0.003504  -0.032761
   17  C  4  S   -0.752855   0.359906   0.432844   0.029383   0.235100
   18  C  4  X   -0.034495  -0.014848   0.151649   0.082130  -0.097861
   19  C  4  Y   -0.125633  -0.053654   0.328838  -0.375799  -0.126799
   20  C  4  Z   -0.020147  -0.068337  -0.047402  -0.573346  -0.061320
   21  C  5  S   -0.060194   0.017658  -0.072154  -0.005878   0.022309
   22  C  5  S    0.380972  -0.117581   0.488134   0.036733  -0.155317
   23  C  5  X    0.084839  -0.128898  -0.134560  -0.276065  -0.207180
   24  C  5  Y    0.107821  -0.149930  -0.239347   0.055041  -0.120692
   25  C  5  Z   -0.032320   0.054178   0.061118   0.646307   0.384061
   26  C  6  S   -0.010529  -0.092866   0.030758  -0.001541  -0.016686
   27  C  6  S    0.056931   0.582547  -0.198529   0.011018   0.103350
   28  C  6  X    0.004574   0.095655   0.147310  -0.082361   0.203081
   29  C  6  Y   -0.090744  -0.487654  -0.049574   0.169702   0.374455
   30  C  6  Z   -0.250323   0.030785  -0.537696   0.241877  -0.145214
   31  C  7  S    0.066775   0.067481   0.044273   0.009070   0.021497
   32  C  7  S   -0.422867  -0.451952  -0.301118  -0.058444  -0.151856
   33  C  7  X   -0.029321   0.051382   0.175102  -0.208685   0.107456
   34  C  7  Y   -0.130737   0.052356   0.272837   0.391554  -0.535405
   35  C  7  Z    0.072104  -0.018325  -0.017517   0.365273  -0.284526
   36  C  8  S   -0.116605   0.012584   0.077434  -0.003117  -0.035768
   37  C  8  S    0.762859  -0.085782  -0.520218   0.017409   0.257296
   38  C  8  X    0.055617  -0.201250  -0.085165   0.380498  -0.257404
   39  C  8  Y    0.045204  -0.219290  -0.244802  -0.183868  -0.022406
   40  C  8  Z   -0.117761   0.111933   0.015992  -0.476259   0.177206
   41  C  9  S   -0.004990   0.030721  -0.015375   0.013753   0.110894
   42  C  9  S    0.031220  -0.196758   0.098893  -0.090344  -0.731017
   43  C  9  X   -0.201668   0.085811   0.231883   0.143067  -0.172576
   44  C  9  Y    0.229906  -0.234592  -0.199483  -0.249940  -0.582840
   45  C  9  Z    0.455061  -0.150606  -0.490447  -0.315644   0.295674
   46  O 10  S    0.001390  -0.020989   0.008823  -0.010191  -0.084406
   47  O 10  S   -0.009270   0.147418  -0.061889   0.073601   0.611232
   48  O 10  X    0.060845  -0.084339  -0.037396  -0.066448  -0.196082
   49  O 10  Y   -0.056880  -0.126623   0.131183  -0.027570  -0.619961
   50  O 10  Z   -0.137491   0.109977   0.101862   0.117151   0.209846
   51  H 11  S    0.029156   0.795206  -0.363158  -0.001995  -0.113267
   52  H 12  S    0.701929   0.403183   0.363121  -0.130818   0.002155
   53  H 13  S    0.222286  -0.121970   0.243186  -0.067585  -0.161238
   54  H 14  S   -0.081838   0.015798  -0.022361  -0.050596  -0.143535
   55  H 15  S    0.145710  -0.214914   0.191422   0.041417   0.198978
   56  H 16  S    0.449522  -0.082367  -0.369432   0.507013   0.024080
   57  H 17  S   -0.119491  -0.042202  -0.330374  -0.545867  -0.277422
   58  H 18  S    0.009397  -0.647436   0.266064   0.023973   0.239303
   59  H 19  S    0.124428   0.212900   0.262633   0.455971  -0.408489
   60  H 20  S   -0.468076   0.227905   0.287809  -0.478374   0.145751

                     56         57         58         59         60
                    0.9333     0.9458     1.0466     1.0752     1.1299
                     A          A          A          A          A   
    1  C  1  S   -0.001590  -0.051652   0.017027  -0.001768  -0.004787
    2  C  1  S    0.012764   0.335512  -0.114608   0.010885   0.030981
    3  C  1  X   -0.073052  -0.068561   0.197044  -0.083531   0.011634
    4  C  1  Y    0.123882   0.383636  -0.000115   0.028439  -0.060956
    5  C  1  Z   -0.036019  -0.149078  -0.248710   0.126746   0.043953
    6  C  2  S   -0.005319  -0.012660   0.102512  -0.023473  -0.006082
    7  C  2  S    0.044904   0.112056  -0.837946   0.194042   0.045214
    8  C  2  X   -0.182293  -0.600550  -0.158001   0.040649   0.026093
    9  C  2  Y    0.136802   0.439530  -0.899359   0.243158   0.011476
   10  C  2  Z    0.142749   0.446104   0.707062  -0.182945  -0.037150
   11  C  3  S    0.001641   0.004564  -0.109752   0.028067   0.003647
   12  C  3  S   -0.011006  -0.029463   0.885698  -0.228426  -0.029796
   13  C  3  X    0.198493   0.602233  -0.169446   0.044159  -0.003239
   14  C  3  Y   -0.137852  -0.422179  -0.849664   0.209179   0.036468
   15  C  3  Z   -0.154614  -0.462519   0.673282  -0.170859  -0.019975
   16  C  4  S    0.061450  -0.013376  -0.016478  -0.055852  -0.062112
   17  C  4  S   -0.475428   0.106494   0.138947   0.477593   0.502291
   18  C  4  X    0.378240  -0.103862  -0.114257  -0.416929  -0.188950
   19  C  4  Y    0.148003  -0.018058  -0.221018  -0.658423  -0.663942
   20  C  4  Z   -0.531979   0.211970   0.049942   0.269122  -0.195614
   21  C  5  S   -0.054930   0.010416   0.021236   0.058627   0.065053
   22  C  5  S    0.426884  -0.090800  -0.177373  -0.498137  -0.529214
   23  C  5  X    0.097813   0.017154  -0.125358  -0.389566  -0.332272
   24  C  5  Y    0.574725  -0.184618  -0.177144  -0.710942  -0.374603
   25  C  5  Z    0.275800  -0.248212   0.039975   0.054939   0.320080
   26  C  6  S   -0.080650   0.029341  -0.001737  -0.001283  -0.010778
   27  C  6  S    0.530136  -0.188684   0.009766   0.008753   0.066388
   28  C  6  X    0.150837  -0.062494   0.009088   0.138422   0.137596
   29  C  6  Y   -0.024749  -0.203907  -0.022667  -0.143694   0.261245
   30  C  6  Z    0.051668   0.028034   0.000690  -0.305017  -0.062130
   31  C  7  S   -0.050309   0.014652  -0.017966  -0.057804   0.065490
   32  C  7  S    0.394718  -0.119421   0.149038   0.495038  -0.535768
   33  C  7  X    0.444538  -0.172974   0.104886   0.483872  -0.166905
   34  C  7  Y    0.188704   0.022393   0.157051   0.618024  -0.579829
   35  C  7  Z   -0.451269   0.183341  -0.033947  -0.232673  -0.056297
   36  C  8  S    0.060511  -0.014763   0.013265   0.056097  -0.062878
   37  C  8  S   -0.469662   0.114599  -0.112771  -0.480707   0.510209
   38  C  8  X   -0.046598   0.013305   0.087783   0.339068  -0.479729
   39  C  8  Y    0.577629  -0.183536   0.193847   0.747366  -0.365005
   40  C  8  Z    0.341177  -0.088344  -0.025025  -0.101665   0.410379
   41  C  9  S    0.034299  -0.036994  -0.001558   0.000194  -0.029902
   42  C  9  S   -0.232773   0.245916   0.011980  -0.001726   0.209963
   43  C  9  X    0.088222   0.006650  -0.021113  -0.145231   0.290666
   44  C  9  Y    0.391335   0.055377   0.082192   0.152431   0.765858
   45  C  9  Z   -0.158530  -0.008709   0.068239   0.305259  -0.262253
   46  O 10  S    0.023321   0.014352   0.003636  -0.000399   0.065799
   47  O 10  S   -0.177569  -0.103324  -0.027684   0.003179  -0.508345
   48  O 10  X    0.059246   0.034606   0.012805   0.023188   0.128464
   49  O 10  Y    0.163456   0.103699   0.019012  -0.029341   0.466923
   50  O 10  Z   -0.057694  -0.042228  -0.023834  -0.049629  -0.181733
   51  H 11  S    0.056674   0.109626   0.166737  -0.053283  -0.043585
   52  H 12  S    0.015719  -0.138658  -0.139514   0.089675   0.006519
   53  H 13  S   -0.189393  -0.598059  -0.120992   0.036513   0.016160
   54  H 14  S   -0.183977  -0.549861   0.116827  -0.029011  -0.002067
   55  H 15  S    0.186990   0.562073   0.081462  -0.015368  -0.010260
   56  H 16  S    0.338963  -0.129787   0.047260   0.068955   0.241083
   57  H 17  S   -0.235973   0.183346  -0.022577  -0.055744  -0.141126
   58  H 18  S   -0.210340  -0.063446  -0.020147   0.005220   0.117770
   59  H 19  S   -0.246001   0.150497   0.020125   0.051250  -0.142056
   60  H 20  S    0.360770  -0.091138  -0.021969  -0.069290   0.242825

 THE NUCLEAR REPULSION AT THE IRC POINT IS      494.9193003847

 * * * IRC RESTART INFORMATION * * *
 COORDINATES FOR $DATA AND ENTIRE $IRC GROUP FOLLOW

 COORDINATES OF SYMMETRY UNIQUE ATOMS (ANGS)
   ATOM   CHARGE       X              Y              Z
 ------------------------------------------------------------
 C           6.0   2.9067277603  -1.8835083320   0.8887739743
 C           6.0   2.1472990659  -0.5588153345   0.9687175093
 C           6.0   2.3248744040   0.4685283023   0.1773436661
 C           6.0   5.1028917350   0.4078430083   2.3148929408
 C           6.0   4.4508256486  -0.7035131635   2.5712466816
 C           6.0   4.3345951977  -1.8494558872   1.5698821955
 C           6.0   5.4213797751  -1.7631666948   0.5024427018
 C           6.0   6.0832069705  -0.6622021506   0.2326484198
 C           6.0   5.8273730172   0.6132428646   1.0025637746
 O           8.0   6.1678772426   1.7163618642   0.5908777168
 H           1.0   2.3117884362  -2.6541705525   1.3736652203
 H           1.0   3.0276322574  -2.1781739684  -0.1517657722
 H           1.0   1.4281118550  -0.4900066425   1.7774317134
 H           1.0   3.0336272139   0.4576804779  -0.6396017908
 H           1.0   1.7662106992   1.3857528231   0.3027243307
 H           1.0   5.1362477471   1.2269557843   3.0220799022
 H           1.0   3.9210321990  -0.8345201278   3.5085890039
 H           1.0   4.4587317997  -2.7931390348   2.1038998155
 H           1.0   5.5942853748  -2.6712739101  -0.0651926466
 H           1.0   6.8210511410  -0.6157929173  -0.5581835442
 $IRC   PACE=GS2        STRIDE= 0.10000   NPOINT=??
        STOTAL=  9.998431   NEXTPT= 101
        NPRT= 0   NPUN= 0   SADDLE=.FALSE.
        GA(   1)= 4.818990845E-04, 2.259250095E-04,-1.180561335E-03
        GA(   4)=-2.097091050E-04,-1.724045839E-04,-2.586251620E-04
        GA(   7)= 1.061905231E-03, 1.336057232E-03, 2.094510610E-03
        GA(  10)=-4.706938686E-04, 8.404444473E-05,-3.373863466E-04
        GA(  13)=-3.158830949E-04, 1.093124870E-04,-1.398991605E-04
        GA(  16)=-3.834751781E-05,-9.689467648E-05, 5.376664093E-05
        GA(  19)= 7.692465377E-04,-6.026890272E-04, 8.073298383E-04
        GA(  22)= 5.739555671E-04,-5.576075959E-04, 5.447261946E-04
        GA(  25)=-4.327889908E-04,-1.887786711E-04,-3.651216673E-04
        GA(  28)=-1.675883195E-03,-3.015516325E-04,-1.485610516E-03
        GA(  31)= 2.877941232E-05,-5.963437415E-05,-2.075459123E-04
        GA(  34)= 1.162750802E-04, 1.405142801E-04,-1.088931701E-04
        GA(  37)=-1.859562027E-04,-1.721536227E-04,-1.318602257E-04
        GA(  40)= 2.109339633E-04, 2.631183034E-04, 3.118048143E-04
        GA(  43)= 2.786773727E-05, 8.773511243E-05, 2.244116705E-04
        GA(  46)=-5.278313693E-05, 3.889559171E-05,-3.664513371E-05
        GA(  49)=-4.473449937E-05, 1.816695581E-05,-3.817126523E-06
        GA(  52)=-6.108184907E-05, 6.725566549E-06, 2.402603144E-05
        GA(  55)= 1.195480948E-04,-8.894853174E-05, 1.198557879E-04
        GA(  58)= 9.745078062E-05,-6.983227063E-05, 7.553416730E-05
 $END   
 A GS2 RESTART ALSO REQUIRES THE UPDATED $HESS GROUP FROM THE PUNCH FILE
 ......DONE WITH THIS PORTION OF THE IRC......
 STEP CPU TIME =     0.01 TOTAL CPU TIME =        220.4 (      3.7 MIN)
 TOTAL WALL CLOCK TIME=        228.7 SECONDS, CPU UTILIZATION IS    96.36%
               580000  WORDS OF DYNAMIC MEMORY USED
 EXECUTION OF GAMESS TERMINATED NORMALLY Mon Nov 15 02:57:27 2021
 DDI: 263640 bytes (0.3 MB / 0 MWords) used by master data server.

 ----------------------------------------
 CPU timing information for all processes
 ========================================
 0: 203.234 + 17.137 = 220.372
 ----------------------------------------
 ddikick.x: exited gracefully.
----- accounting info -----
Files used on the master node chemcompute-node-0.novalocal were:
-rw-r--r--. 1 chemcomp chemcomp    60521 Nov 15 02:53 /scratch/306622/342636.F05
-rw-rw-r--. 1 chemcomp chemcomp 17281536 Nov 15 02:57 /scratch/306622/342636.F08
-rw-rw-r--. 1 chemcomp chemcomp 52428800 Nov 15 02:57 /scratch/306622/342636.F10
Mon Nov 15 02:57:30 UTC 2021
0.177u 0.110s 3:54.02 0.1%	0+0k 120+328io 0pf+0w
Finishing Up...
Looking for IR data...
Looking for Raman data...
vibramans not found
Looking for thermodynamics data...
Looking for UV-Vis data...
306622
